;Created using lmp2gro

[ atomtypes ]
;name     at.nr      mass  charge   ptype     sigma   epsilon
aoy          13   26.9815  0.0000     A        4.27123572e-01      5.56388320e-06
sty          14   28.0855  0.0000     A        3.30202699e-01      7.70065200e-06
oby           8   15.9994  0.0000     A        3.16554133e-01      6.50193600e-01
ohy           8   15.9994  0.0000     A        3.16554133e-01      6.50193600e-01
hoy           1    1.0079  0.0000     A        0.00000000e+00      0.00000000e+00
