Created using lmp2gro
 2040
    1KAO     Al    1   0.094   0.440   0.512
    1KAO     Al    2   0.108   0.730   0.499
    1KAO     Al    3   0.364   0.880   0.512
    1KAO     Al    4   0.350   0.285   0.505
    1KAO     Si    5   0.022   0.311   0.217
    1KAO     Si    6   0.028   0.579   0.238
    1KAO     Si    7   0.268   0.750   0.231
    1KAO     Si    8   0.277   0.160   0.225
    1KAO     O     9   0.023   0.584   0.384
    1KAO     O    10   0.049   0.437   0.158
    1KAO     O    11   0.138   0.197   0.163
    1KAO     O    12   0.130   0.688   0.152
    1KAO     O    13   0.269   0.747   0.387
    1KAO     O    14   0.295   0.133   0.396
    1KAO     O    15   0.287   2.686   0.160
    1KAO     O    16   0.394   0.648   0.198
    1KAO     O    17   0.399   0.235   0.164
    1KAO     O    18   0.003   0.857   0.400
    1KAO     O    19   0.416   0.142   0.594
    1KAO     O    20   0.256   0.411   0.394
    1KAO     O    21   0.159   0.576   0.599
    1KAO     O    22   0.198   0.857   0.589
    1KAO     O    23   0.189   0.316   0.594
    1KAO     H    24   0.063   0.950   0.422
    1KAO     H    25   0.468   0.153   0.686
    1KAO     H    26   0.310   0.487   0.357
    1KAO     H    27   0.185   0.561   0.691
    1KAO     H    28   0.170   0.861   0.692
    1KAO     H    29   0.178   0.247   0.679
    1KAO     Al   30   2.480   0.410   1.225
    1KAO     Al   31   2.495   0.701   1.211
    1KAO     Si   32   2.409   0.281   0.929
    1KAO     Si   33   2.415   0.549   0.951
    1KAO     O    34   2.385   0.269   1.108
    1KAO     O    35   2.409   0.554   1.096
    1KAO     O    36   2.436   0.407   0.870
    1KAO     O    37   2.525   0.167   0.875
    1KAO     O    38   2.516   0.658   0.864
    1KAO     O    39   2.390   0.827   1.112
    1KAO     O    40   2.342   0.372   1.307
    1KAO     O    41   2.329   0.709   1.317
    1KAO     O    42   2.545   0.546   1.311
    1KAO     O    43   2.575   0.286   1.307
    1KAO     H    44   2.450   0.920   1.135
    1KAO     H    45   2.291   0.423   1.392
    1KAO     H    46   2.295   0.702   1.399
    1KAO     H    47   2.571   0.531   1.403
    1KAO     H    48   2.557   0.831   1.404
    1KAO     H    49   2.565   0.217   1.392
    1KAO     Al   50   0.237   0.440   1.959
    1KAO     Al   51   0.252   0.730   1.945
    1KAO     Al   52   0.508   0.880   1.959
    1KAO     Al   53   0.493   0.285   1.952
    1KAO     Si   54   0.166   0.311   1.664
    1KAO     Si   55   0.172   0.579   1.685
    1KAO     Si   56   0.411   0.750   1.678
    1KAO     Si   57   0.420   0.160   1.671
    1KAO     O    58   0.166   0.584   1.830
    1KAO     O    59   0.192   0.437   1.604
    1KAO     O    60   0.282   0.197   1.609
    1KAO     O    61   0.273   0.688   1.599
    1KAO     O    62   0.412   0.747   1.833
    1KAO     O    63   0.438   0.133   1.843
    1KAO     O    64   0.431   2.686   1.606
    1KAO     O    65   0.537   0.648   1.645
    1KAO     O    66   0.543   0.235   1.611
    1KAO     O    67   0.147   0.857   1.846
    1KAO     O    68   0.560   0.142   2.040
    1KAO     O    69   0.399   0.411   1.840
    1KAO     O    70   0.302   0.576   2.045
    1KAO     O    71   0.341   0.857   2.035
    1KAO     O    72   0.332   0.316   2.041
    1KAO     H    73   0.207   0.950   1.869
    1KAO     H    74   0.612   0.153   2.132
    1KAO     H    75   0.453   0.487   1.803
    1KAO     H    76   0.328   0.561   2.137
    1KAO     H    77   0.314   0.861   2.139
    1KAO     H    78   0.322   0.247   2.126
    1KAO     Al   79   0.047   0.410   2.671
    1KAO     Al   80   0.061   0.701   2.658
    1KAO     Si   81   2.552   0.281   2.376
    1KAO     Si   82   2.558   0.549   2.397
    1KAO     O    83   2.529   0.269   2.555
    1KAO     O    84   2.553   0.554   2.543
    1KAO     O    85   0.002   0.407   2.317
    1KAO     O    86   0.091   0.167   2.322
    1KAO     O    87   0.083   0.658   2.311
    1KAO     O    88   2.534   0.827   2.559
    1KAO     O    89   2.485   0.372   2.753
    1KAO     O    90   2.472   0.709   2.763
    1KAO     O    91   0.112   0.546   2.758
    1KAO     O    92   0.142   0.286   2.753
    1KAO     H    93   0.016   0.920   2.581
    1KAO     H    94   2.434   0.423   2.839
    1KAO     H    95   2.438   0.702   2.846
    1KAO     H    96   0.138   0.531   2.850
    1KAO     H    97   0.123   0.831   2.851
    1KAO     H    98   0.131   0.217   2.838
    1KAO     Al   99   0.174   0.850   1.225
    1KAO     Al  100   0.159   0.255   1.218
    1KAO     Si  101   0.077   0.720   0.944
    1KAO     Si  102   0.086   0.130   0.937
    1KAO     O   103   0.078   0.717   1.099
    1KAO     O   104   0.104   0.103   1.108
    1KAO     O   105   0.203   0.618   0.911
    1KAO     O   106   0.209   0.205   0.877
    1KAO     O   107   0.226   0.112   1.306
    1KAO     O   108   0.066   0.381   1.106
    1KAO     O   109   0.007   0.827   1.301
    1KAO     H   110   0.278   0.123   1.398
    1KAO     H   111   0.119   0.458   1.069
    1KAO     Al  112   0.317   0.850   2.671
    1KAO     Al  113   0.303   0.255   2.664
    1KAO     Si  114   0.221   0.720   2.390
    1KAO     Si  115   0.230   0.130   2.384
    1KAO     O   116   0.222   0.717   2.546
    1KAO     O   117   0.248   0.103   2.555
    1KAO     O   118   0.347   0.618   2.357
    1KAO     O   119   0.352   0.205   2.323
    1KAO     O   120   0.369   0.112   2.753
    1KAO     O   121   0.209   0.381   2.553
    1KAO     O   122   0.151   0.827   2.748
    1KAO     H   123   0.421   0.123   2.845
    1KAO     H   124   0.263   0.458   2.516
    1KAO     O   125   2.576   0.298   0.396
    1KAO     O   126   2.532   0.402   0.594
    1KAO     O   127   2.519   0.739   0.604
    1KAO     H   128   2.481   0.453   0.680
    1KAO     H   129   2.485   0.732   0.687
    1KAO     O   130   0.142   0.298   1.843
    1KAO     O   131   0.099   0.402   2.041
    1KAO     O   132   0.086   0.739   2.051
    1KAO     H   133   0.047   0.453   2.126
    1KAO     H   134   0.052   0.732   2.134
    1KAO     Al  135   0.609   0.440   0.512
    1KAO     Al  136   0.624   0.730   0.499
    1KAO     Al  137   0.880   0.880   0.512
    1KAO     Al  138   0.865   0.285   0.505
    1KAO     Si  139   0.538   0.311   0.217
    1KAO     Si  140   0.544   0.579   0.238
    1KAO     Si  141   0.783   0.750   0.231
    1KAO     Si  142   0.792   0.160   0.225
    1KAO     O   143   0.514   0.298   0.396
    1KAO     O   144   0.538   0.584   0.384
    1KAO     O   145   0.564   0.437   0.158
    1KAO     O   146   0.653   0.197   0.163
    1KAO     O   147   0.645   0.688   0.152
    1KAO     O   148   0.784   0.747   0.387
    1KAO     O   149   0.810   0.133   0.396
    1KAO     O   150   0.802   2.686   0.160
    1KAO     O   151   0.909   0.648   0.198
    1KAO     O   152   0.914   0.235   0.164
    1KAO     O   153   0.519   0.857   0.400
    1KAO     O   154   0.932   0.142   0.594
    1KAO     O   155   0.471   0.402   0.594
    1KAO     O   156   0.458   0.739   0.604
    1KAO     O   157   0.771   0.411   0.394
    1KAO     O   158   0.674   0.576   0.599
    1KAO     O   159   0.713   0.857   0.589
    1KAO     O   160   0.704   0.316   0.594
    1KAO     H   161   0.578   0.950   0.422
    1KAO     H   162   0.984   0.153   0.686
    1KAO     H   163   0.419   0.453   0.680
    1KAO     H   164   0.424   0.732   0.687
    1KAO     H   165   0.825   0.487   0.357
    1KAO     H   166   0.700   0.561   0.691
    1KAO     H   167   0.686   0.861   0.692
    1KAO     H   168   0.694   0.247   0.679
    1KAO     Al  169   0.419   0.410   1.225
    1KAO     Al  170   0.433   0.701   1.211
    1KAO     Al  171   0.689   0.850   1.225
    1KAO     Al  172   0.675   0.255   1.218
    1KAO     Si  173   0.347   0.281   0.929
    1KAO     Si  174   0.353   0.549   0.951
    1KAO     Si  175   0.593   0.720   0.944
    1KAO     Si  176   0.602   0.130   0.937
    1KAO     O   177   0.324   0.269   1.108
    1KAO     O   178   0.348   0.554   1.096
    1KAO     O   179   0.374   0.407   0.870
    1KAO     O   180   0.463   0.167   0.875
    1KAO     O   181   0.455   0.658   0.864
    1KAO     O   182   0.594   0.717   1.099
    1KAO     O   183   0.620   0.103   1.108
    1KAO     O   184   0.719   0.618   0.911
    1KAO     O   185   0.724   0.205   0.877
    1KAO     O   186   0.328   0.827   1.112
    1KAO     O   187   0.741   0.112   1.306
    1KAO     O   188   0.280   0.372   1.307
    1KAO     O   189   0.267   0.709   1.317
    1KAO     O   190   0.581   0.381   1.106
    1KAO     O   191   0.484   0.546   1.311
    1KAO     O   192   0.523   0.827   1.301
    1KAO     O   193   0.514   0.286   1.307
    1KAO     H   194   0.388   0.920   1.135
    1KAO     H   195   0.793   0.123   1.398
    1KAO     H   196   0.229   0.423   1.392
    1KAO     H   197   0.233   0.702   1.399
    1KAO     H   198   0.634   0.458   1.069
    1KAO     H   199   0.510   0.531   1.403
    1KAO     H   200   0.495   0.831   1.404
    1KAO     H   201   0.503   0.217   1.392
    1KAO     Al  202   0.753   0.440   1.959
    1KAO     Al  203   0.767   0.730   1.945
    1KAO     Al  204   1.023   0.880   1.959
    1KAO     Al  205   1.009   0.285   1.952
    1KAO     Si  206   0.681   0.311   1.664
    1KAO     Si  207   0.687   0.579   1.685
    1KAO     Si  208   0.927   0.750   1.678
    1KAO     Si  209   0.936   0.160   1.671
    1KAO     O   210   0.658   0.298   1.843
    1KAO     O   211   0.682   0.584   1.830
    1KAO     O   212   0.708   0.437   1.604
    1KAO     O   213   0.797   0.197   1.609
    1KAO     O   214   0.789   0.688   1.599
    1KAO     O   215   0.928   0.747   1.833
    1KAO     O   216   0.954   0.133   1.843
    1KAO     O   217   0.946   2.686   1.606
    1KAO     O   218   1.053   0.648   1.645
    1KAO     O   219   1.058   0.235   1.611
    1KAO     O   220   0.662   0.857   1.846
    1KAO     O   221   1.075   0.142   2.040
    1KAO     O   222   0.614   0.402   2.041
    1KAO     O   223   0.601   0.739   2.051
    1KAO     O   224   0.915   0.411   1.840
    1KAO     O   225   0.818   0.576   2.045
    1KAO     O   226   0.857   0.857   2.035
    1KAO     O   227   0.848   0.316   2.041
    1KAO     H   228   0.722   0.950   1.869
    1KAO     H   229   1.127   0.153   2.132
    1KAO     H   230   0.563   0.453   2.126
    1KAO     H   231   0.567   0.732   2.134
    1KAO     H   232   0.968   0.487   1.803
    1KAO     H   233   0.844   0.561   2.137
    1KAO     H   234   0.829   0.861   2.139
    1KAO     H   235   0.837   0.247   2.126
    1KAO     Al  236   0.562   0.410   2.671
    1KAO     Al  237   0.577   0.701   2.658
    1KAO     Al  238   0.833   0.850   2.671
    1KAO     Al  239   0.818   0.255   2.664
    1KAO     Si  240   0.491   0.281   2.376
    1KAO     Si  241   0.497   0.549   2.397
    1KAO     Si  242   0.736   0.720   2.390
    1KAO     Si  243   0.745   0.130   2.384
    1KAO     O   244   0.467   0.269   2.555
    1KAO     O   245   0.491   0.554   2.543
    1KAO     O   246   0.517   0.407   2.317
    1KAO     O   247   0.606   0.167   2.322
    1KAO     O   248   0.598   0.658   2.311
    1KAO     O   249   0.737   0.717   2.546
    1KAO     O   250   0.763   0.103   2.555
    1KAO     O   251   0.862   0.618   2.357
    1KAO     O   252   0.868   0.205   2.323
    1KAO     O   253   0.472   0.827   2.559
    1KAO     O   254   0.885   0.112   2.753
    1KAO     O   255   0.424   0.372   2.753
    1KAO     O   256   0.411   0.709   2.763
    1KAO     O   257   0.724   0.381   2.553
    1KAO     O   258   0.627   0.546   2.758
    1KAO     O   259   0.666   0.827   2.748
    1KAO     O   260   0.657   0.286   2.753
    1KAO     H   261   0.532   0.920   2.581
    1KAO     H   262   0.937   0.123   2.845
    1KAO     H   263   0.372   0.423   2.839
    1KAO     H   264   0.377   0.702   2.846
    1KAO     H   265   0.778   0.458   2.516
    1KAO     H   266   0.653   0.531   2.850
    1KAO     H   267   0.639   0.831   2.851
    1KAO     H   268   0.647   0.217   2.838
    1KAO     Al  269   1.125   0.440   0.512
    1KAO     Al  270   1.139   0.730   0.499
    1KAO     Al  271   1.395   0.880   0.512
    1KAO     Al  272   1.381   0.285   0.505
    1KAO     Si  273   1.053   0.311   0.217
    1KAO     Si  274   1.059   0.579   0.238
    1KAO     Si  275   1.299   0.750   0.231
    1KAO     Si  276   1.308   0.160   0.225
    1KAO     O   277   1.030   0.298   0.396
    1KAO     O   278   1.053   0.584   0.384
    1KAO     O   279   1.080   0.437   0.158
    1KAO     O   280   1.169   0.197   0.163
    1KAO     O   281   1.161   0.688   0.152
    1KAO     O   282   1.300   0.747   0.387
    1KAO     O   283   1.325   0.133   0.396
    1KAO     O   284   1.318   2.686   0.160
    1KAO     O   285   1.425   0.648   0.198
    1KAO     O   286   1.430   0.235   0.164
    1KAO     O   287   1.034   0.857   0.400
    1KAO     O   288   1.447   0.142   0.594
    1KAO     O   289   0.986   0.402   0.594
    1KAO     O   290   0.973   0.739   0.604
    1KAO     O   291   1.287   0.411   0.394
    1KAO     O   292   1.190   0.576   0.599
    1KAO     O   293   1.229   0.857   0.589
    1KAO     O   294   1.220   0.316   0.594
    1KAO     H   295   1.094   0.950   0.422
    1KAO     H   296   1.499   0.153   0.686
    1KAO     H   297   0.935   0.453   0.680
    1KAO     H   298   0.939   0.732   0.687
    1KAO     H   299   1.340   0.487   0.357
    1KAO     H   300   1.216   0.561   0.691
    1KAO     H   301   1.201   0.861   0.692
    1KAO     H   302   1.209   0.247   0.679
    1KAO     Al  303   0.934   0.410   1.225
    1KAO     Al  304   0.949   0.701   1.211
    1KAO     Al  305   1.205   0.850   1.225
    1KAO     Al  306   1.190   0.255   1.218
    1KAO     Si  307   0.863   0.281   0.929
    1KAO     Si  308   0.869   0.549   0.951
    1KAO     Si  309   1.108   0.720   0.944
    1KAO     Si  310   1.117   0.130   0.937
    1KAO     O   311   0.839   0.269   1.108
    1KAO     O   312   0.863   0.554   1.096
    1KAO     O   313   0.889   0.407   0.870
    1KAO     O   314   0.978   0.167   0.875
    1KAO     O   315   0.970   0.658   0.864
    1KAO     O   316   1.109   0.717   1.099
    1KAO     O   317   1.135   0.103   1.108
    1KAO     O   318   1.234   0.618   0.911
    1KAO     O   319   1.239   0.205   0.877
    1KAO     O   320   0.844   0.827   1.112
    1KAO     O   321   1.257   0.112   1.306
    1KAO     O   322   0.796   0.372   1.307
    1KAO     O   323   0.783   0.709   1.317
    1KAO     O   324   1.096   0.381   1.106
    1KAO     O   325   0.999   0.546   1.311
    1KAO     O   326   1.038   0.827   1.301
    1KAO     O   327   1.029   0.286   1.307
    1KAO     H   328   0.903   0.920   1.135
    1KAO     H   329   1.309   0.123   1.398
    1KAO     H   330   0.744   0.423   1.392
    1KAO     H   331   0.749   0.702   1.399
    1KAO     H   332   1.150   0.458   1.069
    1KAO     H   333   1.025   0.531   1.403
    1KAO     H   334   1.010   0.831   1.404
    1KAO     H   335   1.018   0.217   1.392
    1KAO     Al  336   1.268   0.440   1.959
    1KAO     Al  337   1.283   0.730   1.945
    1KAO     Al  338   1.539   0.880   1.959
    1KAO     Al  339   1.524   0.285   1.952
    1KAO     Si  340   1.197   0.311   1.664
    1KAO     Si  341   1.203   0.579   1.685
    1KAO     Si  342   1.442   0.750   1.678
    1KAO     Si  343   1.451   0.160   1.671
    1KAO     O   344   1.173   0.298   1.843
    1KAO     O   345   1.197   0.584   1.830
    1KAO     O   346   1.223   0.437   1.604
    1KAO     O   347   1.312   0.197   1.609
    1KAO     O   348   1.304   0.688   1.599
    1KAO     O   349   1.443   0.747   1.833
    1KAO     O   350   1.469   0.133   1.843
    1KAO     O   351   1.461   2.686   1.606
    1KAO     O   352   1.568   0.648   1.645
    1KAO     O   353   1.573   0.235   1.611
    1KAO     O   354   1.178   0.857   1.846
    1KAO     O   355   1.591   0.142   2.040
    1KAO     O   356   1.129   0.402   2.041
    1KAO     O   357   1.117   0.739   2.051
    1KAO     O   358   1.430   0.411   1.840
    1KAO     O   359   1.333   0.576   2.045
    1KAO     O   360   1.372   0.857   2.035
    1KAO     O   361   1.363   0.316   2.041
    1KAO     H   362   1.237   0.950   1.869
    1KAO     H   363   1.643   0.153   2.132
    1KAO     H   364   1.078   0.453   2.126
    1KAO     H   365   1.082   0.732   2.134
    1KAO     H   366   1.484   0.487   1.803
    1KAO     H   367   1.359   0.561   2.137
    1KAO     H   368   1.344   0.861   2.139
    1KAO     H   369   1.352   0.247   2.126
    1KAO     Al  370   1.078   0.410   2.671
    1KAO     Al  371   1.092   0.701   2.658
    1KAO     Al  372   1.348   0.850   2.671
    1KAO     Al  373   1.334   0.255   2.664
    1KAO     Si  374   1.006   0.281   2.376
    1KAO     Si  375   1.012   0.549   2.397
    1KAO     Si  376   1.252   0.720   2.390
    1KAO     Si  377   1.261   0.130   2.384
    1KAO     O   378   0.983   0.269   2.555
    1KAO     O   379   1.007   0.554   2.543
    1KAO     O   380   1.033   0.407   2.317
    1KAO     O   381   1.122   0.167   2.322
    1KAO     O   382   1.114   0.658   2.311
    1KAO     O   383   1.253   0.717   2.546
    1KAO     O   384   1.278   0.103   2.555
    1KAO     O   385   1.378   0.618   2.357
    1KAO     O   386   1.383   0.205   2.323
    1KAO     O   387   0.987   0.827   2.559
    1KAO     O   388   1.400   0.112   2.753
    1KAO     O   389   0.939   0.372   2.753
    1KAO     O   390   0.926   0.709   2.763
    1KAO     O   391   1.240   0.381   2.553
    1KAO     O   392   1.143   0.546   2.758
    1KAO     O   393   1.182   0.827   2.748
    1KAO     O   394   1.173   0.286   2.753
    1KAO     H   395   1.047   0.920   2.581
    1KAO     H   396   1.452   0.123   2.845
    1KAO     H   397   0.888   0.423   2.839
    1KAO     H   398   0.892   0.702   2.846
    1KAO     H   399   1.293   0.458   2.516
    1KAO     H   400   1.169   0.531   2.850
    1KAO     H   401   1.154   0.831   2.851
    1KAO     H   402   1.162   0.217   2.838
    1KAO     Al  403   1.640   0.440   0.512
    1KAO     Al  404   1.654   0.730   0.499
    1KAO     Al  405   1.911   0.880   0.512
    1KAO     Al  406   1.896   0.285   0.505
    1KAO     Si  407   1.568   0.311   0.217
    1KAO     Si  408   1.575   0.579   0.238
    1KAO     Si  409   1.814   0.750   0.231
    1KAO     Si  410   1.823   0.160   0.225
    1KAO     O   411   1.545   0.298   0.396
    1KAO     O   412   1.569   0.584   0.384
    1KAO     O   413   1.595   0.437   0.158
    1KAO     O   414   1.684   0.197   0.163
    1KAO     O   415   1.676   0.688   0.152
    1KAO     O   416   1.815   0.747   0.387
    1KAO     O   417   1.841   0.133   0.396
    1KAO     O   418   1.833   2.686   0.160
    1KAO     O   419   1.940   0.648   0.198
    1KAO     O   420   1.945   0.235   0.164
    1KAO     O   421   1.550   0.857   0.400
    1KAO     O   422   1.962   0.142   0.594
    1KAO     O   423   1.501   0.402   0.594
    1KAO     O   424   1.489   0.739   0.604
    1KAO     O   425   1.802   0.411   0.394
    1KAO     O   426   1.705   0.576   0.599
    1KAO     O   427   1.744   0.857   0.589
    1KAO     O   428   1.735   0.316   0.594
    1KAO     H   429   1.609   0.950   0.422
    1KAO     H   430   2.015   0.153   0.686
    1KAO     H   431   1.450   0.453   0.680
    1KAO     H   432   1.454   0.732   0.687
    1KAO     H   433   1.856   0.487   0.357
    1KAO     H   434   1.731   0.561   0.691
    1KAO     H   435   1.716   0.861   0.692
    1KAO     H   436   1.724   0.247   0.679
    1KAO     Al  437   1.450   0.410   1.225
    1KAO     Al  438   1.464   0.701   1.211
    1KAO     Al  439   1.720   0.850   1.225
    1KAO     Al  440   1.706   0.255   1.218
    1KAO     Si  441   1.378   0.281   0.929
    1KAO     Si  442   1.384   0.549   0.951
    1KAO     Si  443   1.624   0.720   0.944
    1KAO     Si  444   1.633   0.130   0.937
    1KAO     O   445   1.355   0.269   1.108
    1KAO     O   446   1.378   0.554   1.096
    1KAO     O   447   1.405   0.407   0.870
    1KAO     O   448   1.494   0.167   0.875
    1KAO     O   449   1.485   0.658   0.864
    1KAO     O   450   1.625   0.717   1.099
    1KAO     O   451   1.650   0.103   1.108
    1KAO     O   452   1.750   0.618   0.911
    1KAO     O   453   1.755   0.205   0.877
    1KAO     O   454   1.359   0.827   1.112
    1KAO     O   455   1.772   0.112   1.306
    1KAO     O   456   1.311   0.372   1.307
    1KAO     O   457   1.298   0.709   1.317
    1KAO     O   458   1.612   0.381   1.106
    1KAO     O   459   1.514   0.546   1.311
    1KAO     O   460   1.554   0.827   1.301
    1KAO     O   461   1.545   0.286   1.307
    1KAO     H   462   1.419   0.920   1.135
    1KAO     H   463   1.824   0.123   1.398
    1KAO     H   464   1.260   0.423   1.392
    1KAO     H   465   1.264   0.702   1.399
    1KAO     H   466   1.665   0.458   1.069
    1KAO     H   467   1.541   0.531   1.403
    1KAO     H   468   1.526   0.831   1.404
    1KAO     H   469   1.534   0.217   1.392
    1KAO     Al  470   1.784   0.440   1.959
    1KAO     Al  471   1.798   0.730   1.945
    1KAO     Al  472   2.054   0.880   1.959
    1KAO     Al  473   2.040   0.285   1.952
    1KAO     Si  474   1.712   0.311   1.664
    1KAO     Si  475   1.718   0.579   1.685
    1KAO     Si  476   1.958   0.750   1.678
    1KAO     Si  477   1.967   0.160   1.671
    1KAO     O   478   1.689   0.298   1.843
    1KAO     O   479   1.712   0.584   1.830
    1KAO     O   480   1.739   0.437   1.604
    1KAO     O   481   1.828   0.197   1.609
    1KAO     O   482   1.819   0.688   1.599
    1KAO     O   483   1.959   0.747   1.833
    1KAO     O   484   1.984   0.133   1.843
    1KAO     O   485   1.977   2.686   1.606
    1KAO     O   486   2.084   0.648   1.645
    1KAO     O   487   2.089   0.235   1.611
    1KAO     O   488   1.693   0.857   1.846
    1KAO     O   489   2.106   0.142   2.040
    1KAO     O   490   1.645   0.402   2.041
    1KAO     O   491   1.632   0.739   2.051
    1KAO     O   492   1.946   0.411   1.840
    1KAO     O   493   1.848   0.576   2.045
    1KAO     O   494   1.888   0.857   2.035
    1KAO     O   495   1.879   0.316   2.041
    1KAO     H   496   1.753   0.950   1.869
    1KAO     H   497   2.158   0.153   2.132
    1KAO     H   498   1.594   0.453   2.126
    1KAO     H   499   1.598   0.732   2.134
    1KAO     H   500   1.999   0.487   1.803
    1KAO     H   501   1.875   0.561   2.137
    1KAO     H   502   1.860   0.861   2.139
    1KAO     H   503   1.868   0.247   2.126
    1KAO     Al  504   1.593   0.410   2.671
    1KAO     Al  505   1.608   0.701   2.658
    1KAO     Al  506   1.864   0.850   2.671
    1KAO     Al  507   1.849   0.255   2.664
    1KAO     Si  508   1.522   0.281   2.376
    1KAO     Si  509   1.528   0.549   2.397
    1KAO     Si  510   1.767   0.720   2.390
    1KAO     Si  511   1.776   0.130   2.384
    1KAO     O   512   1.498   0.269   2.555
    1KAO     O   513   1.522   0.554   2.543
    1KAO     O   514   1.548   0.407   2.317
    1KAO     O   515   1.637   0.167   2.322
    1KAO     O   516   1.629   0.658   2.311
    1KAO     O   517   1.768   0.717   2.546
    1KAO     O   518   1.794   0.103   2.555
    1KAO     O   519   1.893   0.618   2.357
    1KAO     O   520   1.898   0.205   2.323
    1KAO     O   521   1.503   0.827   2.559
    1KAO     O   522   1.915   0.112   2.753
    1KAO     O   523   1.454   0.372   2.753
    1KAO     O   524   1.442   0.709   2.763
    1KAO     O   525   1.755   0.381   2.553
    1KAO     O   526   1.658   0.546   2.758
    1KAO     O   527   1.697   0.827   2.748
    1KAO     O   528   1.688   0.286   2.753
    1KAO     H   529   1.562   0.920   2.581
    1KAO     H   530   1.968   0.123   2.845
    1KAO     H   531   1.403   0.423   2.839
    1KAO     H   532   1.407   0.702   2.846
    1KAO     H   533   1.809   0.458   2.516
    1KAO     H   534   1.684   0.531   2.850
    1KAO     H   535   1.669   0.831   2.851
    1KAO     H   536   1.677   0.217   2.838
    1KAO     Al  537   2.155   0.440   0.512
    1KAO     Al  538   2.170   0.730   0.499
    1KAO     Al  539   2.426   0.880   0.512
    1KAO     Al  540   2.411   0.285   0.505
    1KAO     Si  541   2.084   0.311   0.217
    1KAO     Si  542   2.090   0.579   0.238
    1KAO     Si  543   2.330   0.750   0.231
    1KAO     Si  544   2.338   0.160   0.225
    1KAO     O   545   2.060   0.298   0.396
    1KAO     O   546   2.084   0.584   0.384
    1KAO     O   547   2.111   0.437   0.158
    1KAO     O   548   2.200   0.197   0.163
    1KAO     O   549   2.191   0.688   0.152
    1KAO     O   550   2.330   0.747   0.387
    1KAO     O   551   2.356   0.133   0.396
    1KAO     O   552   2.349   2.686   0.160
    1KAO     O   553   2.455   0.648   0.198
    1KAO     O   554   2.461   0.235   0.164
    1KAO     O   555   2.065   0.857   0.400
    1KAO     O   556   2.017   0.402   0.594
    1KAO     O   557   2.004   0.739   0.604
    1KAO     O   558   2.318   0.411   0.394
    1KAO     O   559   2.220   0.576   0.599
    1KAO     O   560   2.260   0.857   0.589
    1KAO     O   561   2.250   0.316   0.594
    1KAO     H   562   2.125   0.950   0.422
    1KAO     H   563   1.966   0.453   0.680
    1KAO     H   564   1.970   0.732   0.687
    1KAO     H   565   2.371   0.487   0.357
    1KAO     H   566   2.247   0.561   0.691
    1KAO     H   567   2.232   0.861   0.692
    1KAO     H   568   2.240   0.247   0.679
    1KAO     Al  569   1.965   0.410   1.225
    1KAO     Al  570   1.979   0.701   1.211
    1KAO     Al  571   2.236   0.850   1.225
    1KAO     Al  572   2.221   0.255   1.218
    1KAO     Si  573   1.893   0.281   0.929
    1KAO     Si  574   1.899   0.549   0.951
    1KAO     Si  575   2.139   0.720   0.944
    1KAO     Si  576   2.148   0.130   0.937
    1KAO     O   577   1.870   0.269   1.108
    1KAO     O   578   1.894   0.554   1.096
    1KAO     O   579   1.920   0.407   0.870
    1KAO     O   580   2.009   0.167   0.875
    1KAO     O   581   2.001   0.658   0.864
    1KAO     O   582   2.140   0.717   1.099
    1KAO     O   583   2.166   0.103   1.108
    1KAO     O   584   2.265   0.618   0.911
    1KAO     O   585   2.270   0.205   0.877
    1KAO     O   586   1.875   0.827   1.112
    1KAO     O   587   1.826   0.372   1.307
    1KAO     O   588   1.813   0.709   1.317
    1KAO     O   589   2.127   0.381   1.106
    1KAO     O   590   2.030   0.546   1.311
    1KAO     O   591   2.069   0.827   1.301
    1KAO     O   592   2.060   0.286   1.307
    1KAO     H   593   1.934   0.920   1.135
    1KAO     H   594   1.775   0.423   1.392
    1KAO     H   595   1.779   0.702   1.399
    1KAO     H   596   2.181   0.458   1.069
    1KAO     H   597   2.056   0.531   1.403
    1KAO     H   598   2.041   0.831   1.404
    1KAO     H   599   2.049   0.217   1.392
    1KAO     Al  600   2.299   0.440   1.959
    1KAO     Al  601   2.313   0.730   1.945
    1KAO     Al  602   2.570   0.880   1.959
    1KAO     Al  603   2.555   0.285   1.952
    1KAO     Si  604   2.227   0.311   1.664
    1KAO     Si  605   2.233   0.579   1.685
    1KAO     Si  606   2.473   0.750   1.678
    1KAO     Si  607   2.482   0.160   1.671
    1KAO     O   608   2.204   0.298   1.843
    1KAO     O   609   2.228   0.584   1.830
    1KAO     O   610   2.254   0.437   1.604
    1KAO     O   611   2.343   0.197   1.609
    1KAO     O   612   2.335   0.688   1.599
    1KAO     O   613   2.474   0.747   1.833
    1KAO     O   614   2.500   0.133   1.843
    1KAO     O   615   2.492   2.686   1.606
    1KAO     O   616   0.022   0.648   1.645
    1KAO     O   617   0.027   0.235   1.611
    1KAO     O   618   2.209   0.857   1.846
    1KAO     O   619   2.160   0.402   2.041
    1KAO     O   620   2.147   0.739   2.051
    1KAO     O   621   2.461   0.411   1.840
    1KAO     O   622   2.364   0.576   2.045
    1KAO     O   623   2.403   0.857   2.035
    1KAO     O   624   2.394   0.316   2.041
    1KAO     H   625   2.268   0.950   1.869
    1KAO     H   626   2.109   0.453   2.126
    1KAO     H   627   2.113   0.732   2.134
    1KAO     H   628   2.515   0.487   1.803
    1KAO     H   629   2.390   0.561   2.137
    1KAO     H   630   2.375   0.861   2.139
    1KAO     H   631   2.383   0.247   2.126
    1KAO     Al  632   2.108   0.410   2.671
    1KAO     Al  633   2.123   0.701   2.658
    1KAO     Al  634   2.379   0.850   2.671
    1KAO     Al  635   2.364   0.255   2.664
    1KAO     Si  636   2.037   0.281   2.376
    1KAO     Si  637   2.043   0.549   2.397
    1KAO     Si  638   2.283   0.720   2.390
    1KAO     Si  639   2.292   0.130   2.384
    1KAO     O   640   2.014   0.269   2.555
    1KAO     O   641   2.037   0.554   2.543
    1KAO     O   642   2.064   0.407   2.317
    1KAO     O   643   2.153   0.167   2.322
    1KAO     O   644   2.144   0.658   2.311
    1KAO     O   645   2.284   0.717   2.546
    1KAO     O   646   2.309   0.103   2.555
    1KAO     O   647   2.409   0.618   2.357
    1KAO     O   648   2.414   0.205   2.323
    1KAO     O   649   2.018   0.827   2.559
    1KAO     O   650   1.970   0.372   2.753
    1KAO     O   651   1.957   0.709   2.763
    1KAO     O   652   2.271   0.381   2.553
    1KAO     O   653   2.173   0.546   2.758
    1KAO     O   654   2.213   0.827   2.748
    1KAO     O   655   2.204   0.286   2.753
    1KAO     H   656   2.078   0.920   2.581
    1KAO     H   657   1.919   0.423   2.839
    1KAO     H   658   1.923   0.702   2.846
    1KAO     H   659   2.324   0.458   2.516
    1KAO     H   660   2.200   0.531   2.850
    1KAO     H   661   2.185   0.831   2.851
    1KAO     H   662   2.193   0.217   2.838
    1KAO     Al  663   0.097   1.334   0.512
    1KAO     Al  664   0.111   1.625   0.499
    1KAO     Al  665   0.368   1.774   0.512
    1KAO     Al  666   0.353   1.179   0.505
    1KAO     Si  667   0.025   1.205   0.217
    1KAO     Si  668   0.031   1.473   0.238
    1KAO     Si  669   0.271   1.644   0.231
    1KAO     Si  670   0.280   1.054   0.225
    1KAO     O   671   0.002   1.193   0.396
    1KAO     O   672   0.026   1.478   0.384
    1KAO     O   673   0.052   1.331   0.158
    1KAO     O   674   0.141   1.091   0.163
    1KAO     O   675   0.133   1.582   0.152
    1KAO     O   676   0.272   1.641   0.387
    1KAO     O   677   0.298   1.027   0.396
    1KAO     O   678   0.290   0.897   0.160
    1KAO     O   679   0.397   1.542   0.198
    1KAO     O   680   0.402   1.129   0.164
    1KAO     O   681   0.007   1.751   0.400
    1KAO     O   682   0.419   1.036   0.594
    1KAO     O   683   0.259   1.305   0.394
    1KAO     O   684   0.162   1.470   0.599
    1KAO     O   685   0.201   1.751   0.589
    1KAO     O   686   0.192   1.210   0.594
    1KAO     H   687   0.066   1.844   0.422
    1KAO     H   688   0.471   1.047   0.686
    1KAO     H   689   0.313   1.382   0.357
    1KAO     H   690   0.188   1.455   0.691
    1KAO     H   691   0.173   1.755   0.692
    1KAO     H   692   0.181   1.141   0.679
    1KAO     Al  693   0.240   1.334   1.959
    1KAO     Al  694   0.255   1.625   1.945
    1KAO     Al  695   0.511   1.774   1.959
    1KAO     Al  696   0.496   1.179   1.952
    1KAO     Si  697   0.169   1.205   1.664
    1KAO     Si  698   0.175   1.473   1.685
    1KAO     Si  699   0.415   1.644   1.678
    1KAO     Si  700   0.423   1.054   1.671
    1KAO     O   701   0.145   1.193   1.843
    1KAO     O   702   0.169   1.478   1.830
    1KAO     O   703   0.196   1.331   1.604
    1KAO     O   704   0.285   1.091   1.609
    1KAO     O   705   0.276   1.582   1.599
    1KAO     O   706   0.415   1.641   1.833
    1KAO     O   707   0.441   1.027   1.843
    1KAO     O   708   0.434   0.897   1.606
    1KAO     O   709   0.541   1.542   1.645
    1KAO     O   710   0.546   1.129   1.611
    1KAO     O   711   0.150   1.751   1.846
    1KAO     O   712   0.563   1.036   2.040
    1KAO     O   713   0.403   1.305   1.840
    1KAO     O   714   0.305   1.470   2.045
    1KAO     O   715   0.345   1.751   2.035
    1KAO     O   716   0.335   1.210   2.041
    1KAO     H   717   0.210   1.844   1.869
    1KAO     H   718   0.615   1.047   2.132
    1KAO     H   719   0.456   1.382   1.803
    1KAO     H   720   0.332   1.455   2.137
    1KAO     H   721   0.317   1.755   2.139
    1KAO     H   722   0.325   1.141   2.126
    1KAO     Al  723   0.612   1.334   0.512
    1KAO     Al  724   0.627   1.625   0.499
    1KAO     Al  725   0.883   1.774   0.512
    1KAO     Al  726   0.868   1.179   0.505
    1KAO     Si  727   0.541   1.205   0.217
    1KAO     Si  728   0.547   1.473   0.238
    1KAO     Si  729   0.786   1.644   0.231
    1KAO     Si  730   0.795   1.054   0.225
    1KAO     O   731   0.517   1.193   0.396
    1KAO     O   732   0.541   1.478   0.384
    1KAO     O   733   0.567   1.331   0.158
    1KAO     O   734   0.657   1.091   0.163
    1KAO     O   735   0.648   1.582   0.152
    1KAO     O   736   0.787   1.641   0.387
    1KAO     O   737   0.813   1.027   0.396
    1KAO     O   738   0.806   0.897   0.160
    1KAO     O   739   0.912   1.542   0.198
    1KAO     O   740   0.918   1.129   0.164
    1KAO     O   741   0.522   1.751   0.400
    1KAO     O   742   0.935   1.036   0.594
    1KAO     O   743   0.474   1.296   0.594
    1KAO     O   744   0.461   1.633   0.604
    1KAO     O   745   0.774   1.305   0.394
    1KAO     O   746   0.677   1.470   0.599
    1KAO     O   747   0.716   1.751   0.589
    1KAO     O   748   0.707   1.210   0.594
    1KAO     H   749   0.582   1.844   0.422
    1KAO     H   750   0.987   1.047   0.686
    1KAO     H   751   0.422   1.347   0.680
    1KAO     H   752   0.427   1.626   0.687
    1KAO     H   753   0.828   1.382   0.357
    1KAO     H   754   0.703   1.455   0.691
    1KAO     H   755   0.689   1.755   0.692
    1KAO     H   756   0.697   1.141   0.679
    1KAO     Al  757   0.422   1.305   1.225
    1KAO     Al  758   0.436   1.595   1.211
    1KAO     Al  759   0.692   1.744   1.225
    1KAO     Al  760   0.678   1.149   1.218
    1KAO     Si  761   0.350   1.175   0.929
    1KAO     Si  762   0.356   1.443   0.951
    1KAO     Si  763   0.596   1.615   0.944
    1KAO     Si  764   0.605   1.025   0.937
    1KAO     O   765   0.327   1.163   1.108
    1KAO     O   766   0.351   1.448   1.096
    1KAO     O   767   0.377   1.301   0.870
    1KAO     O   768   0.466   1.062   0.875
    1KAO     O   769   0.458   1.552   0.864
    1KAO     O   770   0.597   1.611   1.099
    1KAO     O   771   0.623   0.997   1.108
    1KAO     O   772   0.615   0.868   0.872
    1KAO     O   773   0.722   1.512   0.911
    1KAO     O   774   0.727   1.099   0.877
    1KAO     O   775   0.332   1.721   1.112
    1KAO     O   776   0.744   1.007   1.306
    1KAO     O   777   0.283   1.266   1.307
    1KAO     O   778   0.270   1.604   1.317
    1KAO     O   779   0.584   1.275   1.106
    1KAO     O   780   0.487   1.440   1.311
    1KAO     O   781   0.526   1.721   1.301
    1KAO     O   782   0.517   1.180   1.307
    1KAO     H   783   0.391   1.815   1.135
    1KAO     H   784   0.796   1.017   1.398
    1KAO     H   785   0.232   1.318   1.392
    1KAO     H   786   0.236   1.596   1.399
    1KAO     H   787   0.638   1.352   1.069
    1KAO     H   788   0.513   1.425   1.403
    1KAO     H   789   0.498   1.725   1.404
    1KAO     H   790   0.506   1.111   1.392
    1KAO     Al  791   0.756   1.334   1.959
    1KAO     Al  792   0.770   1.625   1.945
    1KAO     Al  793   1.026   1.774   1.959
    1KAO     Al  794   1.012   1.179   1.952
    1KAO     Si  795   0.684   1.205   1.664
    1KAO     Si  796   0.690   1.473   1.685
    1KAO     Si  797   0.930   1.644   1.678
    1KAO     Si  798   0.939   1.054   1.671
    1KAO     O   799   0.661   1.193   1.843
    1KAO     O   800   0.685   1.478   1.830
    1KAO     O   801   0.711   1.331   1.604
    1KAO     O   802   0.800   1.091   1.609
    1KAO     O   803   0.792   1.582   1.599
    1KAO     O   804   0.931   1.641   1.833
    1KAO     O   805   0.957   1.027   1.843
    1KAO     O   806   0.949   0.897   1.606
    1KAO     O   807   1.056   1.542   1.645
    1KAO     O   808   1.061   1.129   1.611
    1KAO     O   809   0.665   1.751   1.846
    1KAO     O   810   1.078   1.036   2.040
    1KAO     O   811   0.617   1.296   2.041
    1KAO     O   812   0.604   1.633   2.051
    1KAO     O   813   0.918   1.305   1.840
    1KAO     O   814   0.821   1.470   2.045
    1KAO     O   815   0.860   1.751   2.035
    1KAO     O   816   0.851   1.210   2.041
    1KAO     H   817   0.725   1.844   1.869
    1KAO     H   818   1.130   1.047   2.132
    1KAO     H   819   0.566   1.347   2.126
    1KAO     H   820   0.570   1.626   2.134
    1KAO     H   821   0.972   1.382   1.803
    1KAO     H   822   0.847   1.455   2.137
    1KAO     H   823   0.832   1.755   2.139
    1KAO     H   824   0.840   1.141   2.126
    1KAO     Al  825   0.565   1.305   2.671
    1KAO     Al  826   0.580   1.595   2.658
    1KAO     Al  827   0.836   1.744   2.671
    1KAO     Al  828   0.821   1.149   2.664
    1KAO     Si  829   0.494   1.175   2.376
    1KAO     Si  830   0.500   1.443   2.397
    1KAO     Si  831   0.739   1.615   2.390
    1KAO     Si  832   0.748   1.025   2.384
    1KAO     O   833   0.470   1.163   2.555
    1KAO     O   834   0.494   1.448   2.543
    1KAO     O   835   0.521   1.301   2.317
    1KAO     O   836   0.610   1.062   2.322
    1KAO     O   837   0.601   1.552   2.311
    1KAO     O   838   0.740   1.611   2.546
    1KAO     O   839   0.766   0.997   2.555
    1KAO     O   840   0.759   0.868   2.319
    1KAO     O   841   0.865   1.512   2.357
    1KAO     O   842   0.871   1.099   2.323
    1KAO     O   843   0.475   1.721   2.559
    1KAO     O   844   0.888   1.007   2.753
    1KAO     O   845   0.427   1.266   2.753
    1KAO     O   846   0.414   1.604   2.763
    1KAO     O   847   0.728   1.275   2.553
    1KAO     O   848   0.630   1.440   2.758
    1KAO     O   849   0.670   1.721   2.748
    1KAO     O   850   0.660   1.180   2.753
    1KAO     H   851   0.535   1.815   2.581
    1KAO     H   852   0.940   1.017   2.845
    1KAO     H   853   0.376   1.318   2.839
    1KAO     H   854   0.380   1.596   2.846
    1KAO     H   855   0.781   1.352   2.516
    1KAO     H   856   0.657   1.425   2.850
    1KAO     H   857   0.642   1.725   2.851
    1KAO     H   858   0.650   1.111   2.838
    1KAO     Al  859   2.159   1.334   0.512
    1KAO     Al  860   2.173   1.625   0.499
    1KAO     Al  861   2.429   1.774   0.512
    1KAO     Al  862   2.415   1.179   0.505
    1KAO     Si  863   2.087   1.205   0.217
    1KAO     Si  864   2.093   1.473   0.238
    1KAO     Si  865   2.333   1.644   0.231
    1KAO     Si  866   2.342   1.054   0.225
    1KAO     O   867   2.064   1.193   0.396
    1KAO     O   868   2.087   1.478   0.384
    1KAO     O   869   2.114   1.331   0.158
    1KAO     O   870   2.203   1.091   0.163
    1KAO     O   871   2.194   1.582   0.152
    1KAO     O   872   2.334   1.641   0.387
    1KAO     O   873   2.359   1.027   0.396
    1KAO     O   874   2.352   0.897   0.160
    1KAO     O   875   2.459   1.542   0.198
    1KAO     O   876   2.464   1.129   0.164
    1KAO     O   877   2.068   1.751   0.400
    1KAO     O   878   2.020   1.296   0.594
    1KAO     O   879   2.007   1.633   0.604
    1KAO     O   880   2.321   1.305   0.394
    1KAO     O   881   2.223   1.470   0.599
    1KAO     O   882   2.263   1.751   0.589
    1KAO     O   883   2.254   1.210   0.594
    1KAO     H   884   2.128   1.844   0.422
    1KAO     H   885   1.969   1.347   0.680
    1KAO     H   886   1.973   1.626   0.687
    1KAO     H   887   2.374   1.382   0.357
    1KAO     H   888   2.250   1.455   0.691
    1KAO     H   889   2.235   1.755   0.692
    1KAO     H   890   2.243   1.141   0.679
    1KAO     Al  891   1.968   1.305   1.225
    1KAO     Al  892   1.983   1.595   1.211
    1KAO     Al  893   2.239   1.744   1.225
    1KAO     Al  894   2.224   1.149   1.218
    1KAO     Si  895   1.897   1.175   0.929
    1KAO     Si  896   1.903   1.443   0.951
    1KAO     Si  897   2.142   1.615   0.944
    1KAO     Si  898   2.151   1.025   0.937
    1KAO     O   899   1.873   1.163   1.108
    1KAO     O   900   1.897   1.448   1.096
    1KAO     O   901   1.923   1.301   0.870
    1KAO     O   902   2.012   1.062   0.875
    1KAO     O   903   2.004   1.552   0.864
    1KAO     O   904   2.143   1.611   1.099
    1KAO     O   905   2.169   0.997   1.108
    1KAO     O   906   2.161   0.868   0.872
    1KAO     O   907   2.268   1.512   0.911
    1KAO     O   908   2.273   1.099   0.877
    1KAO     O   909   1.878   1.721   1.112
    1KAO     O   910   1.829   1.266   1.307
    1KAO     O   911   1.817   1.604   1.317
    1KAO     O   912   2.130   1.275   1.106
    1KAO     O   913   2.033   1.440   1.311
    1KAO     O   914   2.072   1.721   1.301
    1KAO     O   915   2.063   1.180   1.307
    1KAO     H   916   1.937   1.815   1.135
    1KAO     H   917   1.778   1.318   1.392
    1KAO     H   918   1.782   1.596   1.399
    1KAO     H   919   2.184   1.352   1.069
    1KAO     H   920   2.059   1.425   1.403
    1KAO     H   921   2.044   1.725   1.404
    1KAO     H   922   2.052   1.111   1.392
    1KAO     Al  923   2.112   1.305   2.671
    1KAO     Al  924   2.126   1.595   2.658
    1KAO     Al  925   2.382   1.744   2.671
    1KAO     Al  926   2.368   1.149   2.664
    1KAO     Si  927   2.040   1.175   2.376
    1KAO     Si  928   2.046   1.443   2.397
    1KAO     Si  929   2.286   1.615   2.390
    1KAO     Si  930   2.295   1.025   2.384
    1KAO     O   931   2.017   1.163   2.555
    1KAO     O   932   2.040   1.448   2.543
    1KAO     O   933   2.067   1.301   2.317
    1KAO     O   934   2.156   1.062   2.322
    1KAO     O   935   2.148   1.552   2.311
    1KAO     O   936   2.287   1.611   2.546
    1KAO     O   937   2.312   0.997   2.555
    1KAO     O   938   2.305   0.868   2.319
    1KAO     O   939   2.412   1.512   2.357
    1KAO     O   940   2.417   1.099   2.323
    1KAO     O   941   2.021   1.721   2.559
    1KAO     O   942   1.973   1.266   2.753
    1KAO     O   943   1.960   1.604   2.763
    1KAO     O   944   2.274   1.275   2.553
    1KAO     O   945   2.177   1.440   2.758
    1KAO     O   946   2.216   1.721   2.748
    1KAO     O   947   2.207   1.180   2.753
    1KAO     H   948   2.081   1.815   2.581
    1KAO     H   949   1.922   1.318   2.839
    1KAO     H   950   1.926   1.596   2.846
    1KAO     H   951   2.327   1.352   2.516
    1KAO     H   952   2.203   1.425   2.850
    1KAO     H   953   2.188   1.725   2.851
    1KAO     H   954   2.196   1.111   2.838
    1KAO     Al  955   0.100   2.229   0.512
    1KAO     Al  956   0.115   2.519   0.499
    1KAO     Al  957   0.371   2.669   0.512
    1KAO     Al  958   0.356   2.073   0.505
    1KAO     Si  959   0.029   2.099   0.217
    1KAO     Si  960   0.035   2.368   0.238
    1KAO     Si  961   0.274   2.539   0.231
    1KAO     Si  962   0.283   1.949   0.225
    1KAO     O   963   0.005   2.087   0.396
    1KAO     O   964   0.029   2.372   0.384
    1KAO     O   965   0.055   2.225   0.158
    1KAO     O   966   0.144   1.986   0.163
    1KAO     O   967   0.136   2.476   0.152
    1KAO     O   968   0.275   2.535   0.387
    1KAO     O   969   0.301   1.921   0.396
    1KAO     O   970   0.293   1.792   0.160
    1KAO     O   971   0.400   2.436   0.198
    1KAO     O   972   0.405   2.023   0.164
    1KAO     O   973   0.010   2.646   0.400
    1KAO     O   974   0.422   1.931   0.594
    1KAO     O   975   0.262   2.200   0.394
    1KAO     O   976   0.165   2.364   0.599
    1KAO     O   977   0.204   2.645   0.589
    1KAO     O   978   0.195   2.104   0.594
    1KAO     H   979   0.475   1.941   0.686
    1KAO     H   980   0.316   2.276   0.357
    1KAO     H   981   0.191   2.349   0.691
    1KAO     H   982   0.176   2.649   0.692
    1KAO     H   983   0.184   2.035   0.679
    1KAO     Al  984   2.487   2.199   1.225
    1KAO     Al  985   2.501   2.489   1.211
    1KAO     Si  986   2.415   2.069   0.929
    1KAO     Si  987   2.421   2.338   0.951
    1KAO     O   988   2.392   2.057   1.108
    1KAO     O   989   2.415   2.343   1.096
    1KAO     O   990   2.442   2.196   0.870
    1KAO     O   991   2.531   1.956   0.875
    1KAO     O   992   2.523   2.446   0.864
    1KAO     O   993   2.396   2.616   1.112
    1KAO     O   994   2.348   2.160   1.307
    1KAO     O   995   2.335   2.498   1.317
    1KAO     O   996   2.552   2.334   1.311
    1KAO     H   997   2.297   2.212   1.392
    1KAO     H   998   2.301   2.491   1.399
    1KAO     H   999   2.563   2.619   1.404
    1KAO     H  1000   2.571   2.005   1.392
    1KAO     Al 1001   0.244   2.229   1.959
    1KAO     Al 1002   0.258   2.519   1.945
    1KAO     Al 1003   0.514   2.669   1.959
    1KAO     Al 1004   0.500   2.073   1.952
    1KAO     Si 1005   0.172   2.099   1.664
    1KAO     Si 1006   0.178   2.368   1.685
    1KAO     Si 1007   0.418   2.539   1.678
    1KAO     Si 1008   0.427   1.949   1.671
    1KAO     O  1009   0.149   2.087   1.843
    1KAO     O  1010   0.172   2.372   1.830
    1KAO     O  1011   0.199   2.225   1.604
    1KAO     O  1012   0.288   1.986   1.609
    1KAO     O  1013   0.279   2.476   1.599
    1KAO     O  1014   0.419   2.535   1.833
    1KAO     O  1015   0.444   1.921   1.843
    1KAO     O  1016   0.437   1.792   1.606
    1KAO     O  1017   0.544   2.436   1.645
    1KAO     O  1018   0.549   2.023   1.611
    1KAO     O  1019   0.153   2.646   1.846
    1KAO     O  1020   0.566   1.931   2.040
    1KAO     O  1021   0.406   2.200   1.840
    1KAO     O  1022   0.308   2.364   2.045
    1KAO     O  1023   0.348   2.645   2.035
    1KAO     O  1024   0.339   2.104   2.041
    1KAO     H  1025   0.618   1.941   2.132
    1KAO     H  1026   0.459   2.276   1.803
    1KAO     H  1027   0.335   2.349   2.137
    1KAO     H  1028   0.320   2.649   2.139
    1KAO     H  1029   0.328   2.035   2.126
    1KAO     Al 1030   0.053   2.199   2.671
    1KAO     Al 1031   0.068   2.489   2.658
    1KAO     Si 1032   2.559   2.069   2.376
    1KAO     Si 1033   2.565   2.338   2.397
    1KAO     O  1034   2.535   2.057   2.555
    1KAO     O  1035   2.559   2.343   2.543
    1KAO     O  1036   0.008   2.196   2.317
    1KAO     O  1037   0.097   1.956   2.322
    1KAO     O  1038   0.089   2.446   2.311
    1KAO     O  1039   2.540   2.616   2.559
    1KAO     O  1040   2.491   2.160   2.753
    1KAO     O  1041   2.479   2.498   2.763
    1KAO     O  1042   0.118   2.334   2.758
    1KAO     H  1043   2.440   2.212   2.839
    1KAO     H  1044   2.444   2.491   2.846
    1KAO     H  1045   0.129   2.619   2.851
    1KAO     H  1046   0.137   2.005   2.838
    1KAO     Al 1047   0.180   2.639   1.225
    1KAO     Al 1048   0.166   2.043   1.218
    1KAO     Si 1049   0.084   2.509   0.944
    1KAO     Si 1050   0.093   1.919   0.937
    1KAO     O  1051   0.085   2.505   1.099
    1KAO     O  1052   0.110   1.891   1.108
    1KAO     O  1053   0.103   1.762   0.872
    1KAO     O  1054   0.210   2.406   0.911
    1KAO     O  1055   0.215   1.993   0.877
    1KAO     O  1056   0.232   1.901   1.306
    1KAO     O  1057   0.072   2.170   1.106
    1KAO     O  1058   0.014   2.616   1.301
    1KAO     O  1059   0.005   2.074   1.307
    1KAO     H  1060   0.284   1.911   1.398
    1KAO     H  1061   0.125   2.246   1.069
    1KAO     H  1062   0.001   2.320   1.403
    1KAO     Al 1063   0.324   2.639   2.671
    1KAO     Al 1064   0.309   2.043   2.664
    1KAO     Si 1065   0.227   2.509   2.390
    1KAO     Si 1066   0.236   1.919   2.384
    1KAO     O  1067   0.228   2.505   2.546
    1KAO     O  1068   0.254   1.891   2.555
    1KAO     O  1069   0.246   1.762   2.319
    1KAO     O  1070   0.353   2.406   2.357
    1KAO     O  1071   0.358   1.993   2.323
    1KAO     O  1072   0.376   1.901   2.753
    1KAO     O  1073   0.215   2.170   2.553
    1KAO     O  1074   0.157   2.616   2.748
    1KAO     O  1075   0.148   2.074   2.753
    1KAO     H  1076   0.428   1.911   2.845
    1KAO     H  1077   0.269   2.246   2.516
    1KAO     H  1078   0.144   2.320   2.850
    1KAO     O  1079   2.538   2.190   0.594
    1KAO     O  1080   2.526   2.528   0.604
    1KAO     H  1081   2.487   2.242   0.680
    1KAO     H  1082   2.491   2.520   0.687
    1KAO     O  1083   0.105   2.190   2.041
    1KAO     O  1084   0.092   2.528   2.051
    1KAO     H  1085   0.054   2.242   2.126
    1KAO     H  1086   0.058   2.520   2.134
    1KAO     Al 1087   0.615   2.229   0.512
    1KAO     Al 1088   0.630   2.519   0.499
    1KAO     Al 1089   0.886   2.669   0.512
    1KAO     Al 1090   0.871   2.073   0.505
    1KAO     Si 1091   0.544   2.099   0.217
    1KAO     Si 1092   0.550   2.368   0.238
    1KAO     Si 1093   0.790   2.539   0.231
    1KAO     Si 1094   0.798   1.949   0.225
    1KAO     O  1095   0.520   2.087   0.396
    1KAO     O  1096   0.544   2.372   0.384
    1KAO     O  1097   0.571   2.225   0.158
    1KAO     O  1098   0.660   1.986   0.163
    1KAO     O  1099   0.651   2.476   0.152
    1KAO     O  1100   0.790   2.535   0.387
    1KAO     O  1101   0.816   1.921   0.396
    1KAO     O  1102   0.809   1.792   0.160
    1KAO     O  1103   0.916   2.436   0.198
    1KAO     O  1104   0.921   2.023   0.164
    1KAO     O  1105   0.525   2.646   0.400
    1KAO     O  1106   0.938   1.931   0.594
    1KAO     O  1107   0.477   2.190   0.594
    1KAO     O  1108   0.464   2.528   0.604
    1KAO     O  1109   0.778   2.200   0.394
    1KAO     O  1110   0.680   2.364   0.599
    1KAO     O  1111   0.720   2.645   0.589
    1KAO     O  1112   0.710   2.104   0.594
    1KAO     H  1113   0.990   1.941   0.686
    1KAO     H  1114   0.426   2.242   0.680
    1KAO     H  1115   0.430   2.520   0.687
    1KAO     H  1116   0.831   2.276   0.357
    1KAO     H  1117   0.707   2.349   0.691
    1KAO     H  1118   0.692   2.649   0.692
    1KAO     H  1119   0.700   2.035   0.679
    1KAO     Al 1120   0.425   2.199   1.225
    1KAO     Al 1121   0.439   2.489   1.211
    1KAO     Al 1122   0.696   2.639   1.225
    1KAO     Al 1123   0.681   2.043   1.218
    1KAO     Si 1124   0.353   2.069   0.929
    1KAO     Si 1125   0.359   2.338   0.951
    1KAO     Si 1126   0.599   2.509   0.944
    1KAO     Si 1127   0.608   1.919   0.937
    1KAO     O  1128   0.330   2.057   1.108
    1KAO     O  1129   0.354   2.343   1.096
    1KAO     O  1130   0.380   2.196   0.870
    1KAO     O  1131   0.469   1.956   0.875
    1KAO     O  1132   0.461   2.446   0.864
    1KAO     O  1133   0.600   2.505   1.099
    1KAO     O  1134   0.626   1.891   1.108
    1KAO     O  1135   0.618   1.762   0.872
    1KAO     O  1136   0.725   2.406   0.911
    1KAO     O  1137   0.730   1.993   0.877
    1KAO     O  1138   0.335   2.616   1.112
    1KAO     O  1139   0.747   1.901   1.306
    1KAO     O  1140   0.286   2.160   1.307
    1KAO     O  1141   0.274   2.498   1.317
    1KAO     O  1142   0.587   2.170   1.106
    1KAO     O  1143   0.490   2.334   1.311
    1KAO     O  1144   0.529   2.616   1.301
    1KAO     O  1145   0.520   2.074   1.307
    1KAO     H  1146   0.800   1.911   1.398
    1KAO     H  1147   0.235   2.212   1.392
    1KAO     H  1148   0.239   2.491   1.399
    1KAO     H  1149   0.641   2.246   1.069
    1KAO     H  1150   0.516   2.320   1.403
    1KAO     H  1151   0.501   2.619   1.404
    1KAO     H  1152   0.509   2.005   1.392
    1KAO     Al 1153   0.759   2.229   1.959
    1KAO     Al 1154   0.773   2.519   1.945
    1KAO     Al 1155   1.030   2.669   1.959
    1KAO     Al 1156   1.015   2.073   1.952
    1KAO     Si 1157   0.687   2.099   1.664
    1KAO     Si 1158   0.693   2.368   1.685
    1KAO     Si 1159   0.933   2.539   1.678
    1KAO     Si 1160   0.942   1.949   1.671
    1KAO     O  1161   0.664   2.087   1.843
    1KAO     O  1162   0.688   2.372   1.830
    1KAO     O  1163   0.714   2.225   1.604
    1KAO     O  1164   0.803   1.986   1.609
    1KAO     O  1165   0.795   2.476   1.599
    1KAO     O  1166   0.934   2.535   1.833
    1KAO     O  1167   0.960   1.921   1.843
    1KAO     O  1168   0.952   1.792   1.606
    1KAO     O  1169   1.059   2.436   1.645
    1KAO     O  1170   1.064   2.023   1.611
    1KAO     O  1171   0.669   2.646   1.846
    1KAO     O  1172   1.081   1.931   2.040
    1KAO     O  1173   0.620   2.190   2.041
    1KAO     O  1174   0.607   2.528   2.051
    1KAO     O  1175   0.921   2.200   1.840
    1KAO     O  1176   0.824   2.364   2.045
    1KAO     O  1177   0.863   2.645   2.035
    1KAO     O  1178   0.854   2.104   2.041
    1KAO     H  1179   1.133   1.941   2.132
    1KAO     H  1180   0.569   2.242   2.126
    1KAO     H  1181   0.573   2.520   2.134
    1KAO     H  1182   0.975   2.276   1.803
    1KAO     H  1183   0.850   2.349   2.137
    1KAO     H  1184   0.835   2.649   2.139
    1KAO     H  1185   0.843   2.035   2.126
    1KAO     Al 1186   0.569   2.199   2.671
    1KAO     Al 1187   0.583   2.489   2.658
    1KAO     Al 1188   0.839   2.639   2.671
    1KAO     Al 1189   0.825   2.043   2.664
    1KAO     Si 1190   0.497   2.069   2.376
    1KAO     Si 1191   0.503   2.338   2.397
    1KAO     Si 1192   0.743   2.509   2.390
    1KAO     Si 1193   0.752   1.919   2.384
    1KAO     O  1194   0.474   2.057   2.555
    1KAO     O  1195   0.497   2.343   2.543
    1KAO     O  1196   0.524   2.196   2.317
    1KAO     O  1197   0.613   1.956   2.322
    1KAO     O  1198   0.604   2.446   2.311
    1KAO     O  1199   0.744   2.505   2.546
    1KAO     O  1200   0.769   1.891   2.555
    1KAO     O  1201   0.762   1.762   2.319
    1KAO     O  1202   0.869   2.406   2.357
    1KAO     O  1203   0.874   1.993   2.323
    1KAO     O  1204   0.478   2.616   2.559
    1KAO     O  1205   0.891   1.901   2.753
    1KAO     O  1206   0.430   2.160   2.753
    1KAO     O  1207   0.417   2.498   2.763
    1KAO     O  1208   0.731   2.170   2.553
    1KAO     O  1209   0.633   2.334   2.758
    1KAO     O  1210   0.673   2.616   2.748
    1KAO     O  1211   0.664   2.074   2.753
    1KAO     H  1212   0.943   1.911   2.845
    1KAO     H  1213   0.379   2.212   2.839
    1KAO     H  1214   0.383   2.491   2.846
    1KAO     H  1215   0.784   2.246   2.516
    1KAO     H  1216   0.660   2.320   2.850
    1KAO     H  1217   0.645   2.619   2.851
    1KAO     H  1218   0.653   2.005   2.838
    1KAO     Al 1219   1.131   2.229   0.512
    1KAO     Al 1220   1.145   2.519   0.499
    1KAO     Al 1221   1.401   2.669   0.512
    1KAO     Al 1222   1.387   2.073   0.505
    1KAO     Si 1223   1.059   2.099   0.217
    1KAO     Si 1224   1.065   2.368   0.238
    1KAO     Si 1225   1.305   2.539   0.231
    1KAO     Si 1226   1.314   1.949   0.225
    1KAO     O  1227   1.036   2.087   0.396
    1KAO     O  1228   1.060   2.372   0.384
    1KAO     O  1229   1.086   2.225   0.158
    1KAO     O  1230   1.175   1.986   0.163
    1KAO     O  1231   1.167   2.476   0.152
    1KAO     O  1232   1.306   2.535   0.387
    1KAO     O  1233   1.332   1.921   0.396
    1KAO     O  1234   1.324   1.792   0.160
    1KAO     O  1235   1.431   2.436   0.198
    1KAO     O  1236   1.436   2.023   0.164
    1KAO     O  1237   1.040   2.646   0.400
    1KAO     O  1238   1.453   1.931   0.594
    1KAO     O  1239   0.992   2.190   0.594
    1KAO     O  1240   0.979   2.528   0.604
    1KAO     O  1241   1.293   2.200   0.394
    1KAO     O  1242   1.196   2.364   0.599
    1KAO     O  1243   1.235   2.645   0.589
    1KAO     O  1244   1.226   2.104   0.594
    1KAO     H  1245   1.505   1.941   0.686
    1KAO     H  1246   0.941   2.242   0.680
    1KAO     H  1247   0.945   2.520   0.687
    1KAO     H  1248   1.347   2.276   0.357
    1KAO     H  1249   1.222   2.349   0.691
    1KAO     H  1250   1.207   2.649   0.692
    1KAO     H  1251   1.215   2.035   0.679
    1KAO     Al 1252   0.940   2.199   1.225
    1KAO     Al 1253   0.955   2.489   1.211
    1KAO     Al 1254   1.211   2.639   1.225
    1KAO     Al 1255   1.196   2.043   1.218
    1KAO     Si 1256   0.869   2.069   0.929
    1KAO     Si 1257   0.875   2.338   0.951
    1KAO     Si 1258   1.114   2.509   0.944
    1KAO     Si 1259   1.123   1.919   0.937
    1KAO     O  1260   0.845   2.057   1.108
    1KAO     O  1261   0.869   2.343   1.096
    1KAO     O  1262   0.896   2.196   0.870
    1KAO     O  1263   0.985   1.956   0.875
    1KAO     O  1264   0.976   2.446   0.864
    1KAO     O  1265   1.115   2.505   1.099
    1KAO     O  1266   1.141   1.891   1.108
    1KAO     O  1267   1.134   1.762   0.872
    1KAO     O  1268   1.240   2.406   0.911
    1KAO     O  1269   1.246   1.993   0.877
    1KAO     O  1270   0.850   2.616   1.112
    1KAO     O  1271   1.263   1.901   1.306
    1KAO     O  1272   0.802   2.160   1.307
    1KAO     O  1273   0.789   2.498   1.317
    1KAO     O  1274   1.103   2.170   1.106
    1KAO     O  1275   1.005   2.334   1.311
    1KAO     O  1276   1.045   2.616   1.301
    1KAO     O  1277   1.035   2.074   1.307
    1KAO     H  1278   1.315   1.911   1.398
    1KAO     H  1279   0.751   2.212   1.392
    1KAO     H  1280   0.755   2.491   1.399
    1KAO     H  1281   1.156   2.246   1.069
    1KAO     H  1282   1.032   2.320   1.403
    1KAO     H  1283   1.017   2.619   1.404
    1KAO     H  1284   1.025   2.005   1.392
    1KAO     Al 1285   1.274   2.229   1.959
    1KAO     Al 1286   1.289   2.519   1.945
    1KAO     Al 1287   1.545   2.669   1.959
    1KAO     Al 1288   1.530   2.073   1.952
    1KAO     Si 1289   1.203   2.099   1.664
    1KAO     Si 1290   1.209   2.368   1.685
    1KAO     Si 1291   1.448   2.539   1.678
    1KAO     Si 1292   1.457   1.949   1.671
    1KAO     O  1293   1.179   2.087   1.843
    1KAO     O  1294   1.203   2.372   1.830
    1KAO     O  1295   1.230   2.225   1.604
    1KAO     O  1296   1.319   1.986   1.609
    1KAO     O  1297   1.310   2.476   1.599
    1KAO     O  1298   1.449   2.535   1.833
    1KAO     O  1299   1.475   1.921   1.843
    1KAO     O  1300   1.468   1.792   1.606
    1KAO     O  1301   1.574   2.436   1.645
    1KAO     O  1302   1.580   2.023   1.611
    1KAO     O  1303   1.184   2.646   1.846
    1KAO     O  1304   1.597   1.931   2.040
    1KAO     O  1305   1.136   2.190   2.041
    1KAO     O  1306   1.123   2.528   2.051
    1KAO     O  1307   1.437   2.200   1.840
    1KAO     O  1308   1.339   2.364   2.045
    1KAO     O  1309   1.378   2.645   2.035
    1KAO     O  1310   1.369   2.104   2.041
    1KAO     H  1311   1.649   1.941   2.132
    1KAO     H  1312   1.085   2.242   2.126
    1KAO     H  1313   1.089   2.520   2.134
    1KAO     H  1314   1.490   2.276   1.803
    1KAO     H  1315   1.365   2.349   2.137
    1KAO     H  1316   1.351   2.649   2.139
    1KAO     H  1317   1.359   2.035   2.126
    1KAO     Al 1318   1.084   2.199   2.671
    1KAO     Al 1319   1.098   2.489   2.658
    1KAO     Al 1320   1.355   2.639   2.671
    1KAO     Al 1321   1.340   2.043   2.664
    1KAO     Si 1322   1.012   2.069   2.376
    1KAO     Si 1323   1.018   2.338   2.397
    1KAO     Si 1324   1.258   2.509   2.390
    1KAO     Si 1325   1.267   1.919   2.384
    1KAO     O  1326   0.989   2.057   2.555
    1KAO     O  1327   1.013   2.343   2.543
    1KAO     O  1328   1.039   2.196   2.317
    1KAO     O  1329   1.128   1.956   2.322
    1KAO     O  1330   1.120   2.446   2.311
    1KAO     O  1331   1.259   2.505   2.546
    1KAO     O  1332   1.285   1.891   2.555
    1KAO     O  1333   1.277   1.762   2.319
    1KAO     O  1334   1.384   2.406   2.357
    1KAO     O  1335   1.389   1.993   2.323
    1KAO     O  1336   0.994   2.616   2.559
    1KAO     O  1337   1.406   1.901   2.753
    1KAO     O  1338   0.945   2.160   2.753
    1KAO     O  1339   0.932   2.498   2.763
    1KAO     O  1340   1.246   2.170   2.553
    1KAO     O  1341   1.149   2.334   2.758
    1KAO     O  1342   1.188   2.616   2.748
    1KAO     O  1343   1.179   2.074   2.753
    1KAO     H  1344   1.458   1.911   2.845
    1KAO     H  1345   0.894   2.212   2.839
    1KAO     H  1346   0.898   2.491   2.846
    1KAO     H  1347   1.300   2.246   2.516
    1KAO     H  1348   1.175   2.320   2.850
    1KAO     H  1349   1.160   2.619   2.851
    1KAO     H  1350   1.168   2.005   2.838
    1KAO     Al 1351   1.646   2.229   0.512
    1KAO     Al 1352   1.661   2.519   0.499
    1KAO     Al 1353   1.917   2.669   0.512
    1KAO     Al 1354   1.902   2.073   0.505
    1KAO     Si 1355   1.575   2.099   0.217
    1KAO     Si 1356   1.581   2.368   0.238
    1KAO     Si 1357   1.820   2.539   0.231
    1KAO     Si 1358   1.829   1.949   0.225
    1KAO     O  1359   1.551   2.087   0.396
    1KAO     O  1360   1.575   2.372   0.384
    1KAO     O  1361   1.601   2.225   0.158
    1KAO     O  1362   1.690   1.986   0.163
    1KAO     O  1363   1.682   2.476   0.152
    1KAO     O  1364   1.821   2.535   0.387
    1KAO     O  1365   1.847   1.921   0.396
    1KAO     O  1366   1.839   1.792   0.160
    1KAO     O  1367   1.946   2.436   0.198
    1KAO     O  1368   1.952   2.023   0.164
    1KAO     O  1369   1.556   2.646   0.400
    1KAO     O  1370   1.969   1.931   0.594
    1KAO     O  1371   1.508   2.190   0.594
    1KAO     O  1372   1.495   2.528   0.604
    1KAO     O  1373   1.808   2.200   0.394
    1KAO     O  1374   1.711   2.364   0.599
    1KAO     O  1375   1.750   2.645   0.589
    1KAO     O  1376   1.741   2.104   0.594
    1KAO     H  1377   2.021   1.941   0.686
    1KAO     H  1378   1.456   2.242   0.680
    1KAO     H  1379   1.461   2.520   0.687
    1KAO     H  1380   1.862   2.276   0.357
    1KAO     H  1381   1.737   2.349   0.691
    1KAO     H  1382   1.723   2.649   0.692
    1KAO     H  1383   1.731   2.035   0.679
    1KAO     Al 1384   1.456   2.199   1.225
    1KAO     Al 1385   1.470   2.489   1.211
    1KAO     Al 1386   1.726   2.639   1.225
    1KAO     Al 1387   1.712   2.043   1.218
    1KAO     Si 1388   1.384   2.069   0.929
    1KAO     Si 1389   1.390   2.338   0.951
    1KAO     Si 1390   1.630   2.509   0.944
    1KAO     Si 1391   1.639   1.919   0.937
    1KAO     O  1392   1.361   2.057   1.108
    1KAO     O  1393   1.385   2.343   1.096
    1KAO     O  1394   1.411   2.196   0.870
    1KAO     O  1395   1.500   1.956   0.875
    1KAO     O  1396   1.492   2.446   0.864
    1KAO     O  1397   1.631   2.505   1.099
    1KAO     O  1398   1.657   1.891   1.108
    1KAO     O  1399   1.649   1.762   0.872
    1KAO     O  1400   1.756   2.406   0.911
    1KAO     O  1401   1.761   1.993   0.877
    1KAO     O  1402   1.365   2.616   1.112
    1KAO     O  1403   1.778   1.901   1.306
    1KAO     O  1404   1.317   2.160   1.307
    1KAO     O  1405   1.304   2.498   1.317
    1KAO     O  1406   1.618   2.170   1.106
    1KAO     O  1407   1.521   2.334   1.311
    1KAO     O  1408   1.560   2.616   1.301
    1KAO     O  1409   1.551   2.074   1.307
    1KAO     H  1410   1.830   1.911   1.398
    1KAO     H  1411   1.266   2.212   1.392
    1KAO     H  1412   1.270   2.491   1.399
    1KAO     H  1413   1.671   2.246   1.069
    1KAO     H  1414   1.547   2.320   1.403
    1KAO     H  1415   1.532   2.619   1.404
    1KAO     H  1416   1.540   2.005   1.392
    1KAO     Al 1417   1.790   2.229   1.959
    1KAO     Al 1418   1.804   2.519   1.945
    1KAO     Al 1419   2.060   2.669   1.959
    1KAO     Al 1420   2.046   2.073   1.952
    1KAO     Si 1421   1.718   2.099   1.664
    1KAO     Si 1422   1.724   2.368   1.685
    1KAO     Si 1423   1.964   2.539   1.678
    1KAO     Si 1424   1.973   1.949   1.671
    1KAO     O  1425   1.695   2.087   1.843
    1KAO     O  1426   1.719   2.372   1.830
    1KAO     O  1427   1.745   2.225   1.604
    1KAO     O  1428   1.834   1.986   1.609
    1KAO     O  1429   1.826   2.476   1.599
    1KAO     O  1430   1.965   2.535   1.833
    1KAO     O  1431   1.991   1.921   1.843
    1KAO     O  1432   1.983   1.792   1.606
    1KAO     O  1433   2.090   2.436   1.645
    1KAO     O  1434   2.095   2.023   1.611
    1KAO     O  1435   1.699   2.646   1.846
    1KAO     O  1436   2.112   1.931   2.040
    1KAO     O  1437   1.651   2.190   2.041
    1KAO     O  1438   1.638   2.528   2.051
    1KAO     O  1439   1.952   2.200   1.840
    1KAO     O  1440   1.855   2.364   2.045
    1KAO     O  1441   1.894   2.645   2.035
    1KAO     O  1442   1.885   2.104   2.041
    1KAO     H  1443   2.164   1.941   2.132
    1KAO     H  1444   1.600   2.242   2.126
    1KAO     H  1445   1.604   2.520   2.134
    1KAO     H  1446   2.005   2.276   1.803
    1KAO     H  1447   1.881   2.349   2.137
    1KAO     H  1448   1.866   2.649   2.139
    1KAO     H  1449   1.874   2.035   2.126
    1KAO     Al 1450   1.599   2.199   2.671
    1KAO     Al 1451   1.614   2.489   2.658
    1KAO     Al 1452   1.870   2.639   2.671
    1KAO     Al 1453   1.855   2.043   2.664
    1KAO     Si 1454   1.528   2.069   2.376
    1KAO     Si 1455   1.534   2.338   2.397
    1KAO     Si 1456   1.773   2.509   2.390
    1KAO     Si 1457   1.782   1.919   2.384
    1KAO     O  1458   1.504   2.057   2.555
    1KAO     O  1459   1.528   2.343   2.543
    1KAO     O  1460   1.554   2.196   2.317
    1KAO     O  1461   1.644   1.956   2.322
    1KAO     O  1462   1.635   2.446   2.311
    1KAO     O  1463   1.774   2.505   2.546
    1KAO     O  1464   1.800   1.891   2.555
    1KAO     O  1465   1.793   1.762   2.319
    1KAO     O  1466   1.899   2.406   2.357
    1KAO     O  1467   1.905   1.993   2.323
    1KAO     O  1468   1.509   2.616   2.559
    1KAO     O  1469   1.922   1.901   2.753
    1KAO     O  1470   1.461   2.160   2.753
    1KAO     O  1471   1.448   2.498   2.763
    1KAO     O  1472   1.761   2.170   2.553
    1KAO     O  1473   1.664   2.334   2.758
    1KAO     O  1474   1.703   2.616   2.748
    1KAO     O  1475   1.694   2.074   2.753
    1KAO     H  1476   1.974   1.911   2.845
    1KAO     H  1477   1.409   2.212   2.839
    1KAO     H  1478   1.414   2.491   2.846
    1KAO     H  1479   1.815   2.246   2.516
    1KAO     H  1480   1.690   2.320   2.850
    1KAO     H  1481   1.676   2.619   2.851
    1KAO     H  1482   1.684   2.005   2.838
    1KAO     Al 1483   2.162   2.229   0.512
    1KAO     Al 1484   2.176   2.519   0.499
    1KAO     Al 1485   2.432   2.669   0.512
    1KAO     Al 1486   2.418   2.073   0.505
    1KAO     Si 1487   2.090   2.099   0.217
    1KAO     Si 1488   2.096   2.368   0.238
    1KAO     Si 1489   2.336   2.539   0.231
    1KAO     Si 1490   2.345   1.949   0.225
    1KAO     O  1491   2.067   2.087   0.396
    1KAO     O  1492   2.091   2.372   0.384
    1KAO     O  1493   2.117   2.225   0.158
    1KAO     O  1494   2.206   1.986   0.163
    1KAO     O  1495   2.198   2.476   0.152
    1KAO     O  1496   2.337   2.535   0.387
    1KAO     O  1497   2.362   1.921   0.396
    1KAO     O  1498   2.355   1.792   0.160
    1KAO     O  1499   2.462   2.436   0.198
    1KAO     O  1500   2.467   2.023   0.164
    1KAO     O  1501   2.071   2.646   0.400
    1KAO     O  1502   2.023   2.190   0.594
    1KAO     O  1503   2.010   2.528   0.604
    1KAO     O  1504   2.324   2.200   0.394
    1KAO     O  1505   2.227   2.364   0.599
    1KAO     O  1506   2.266   2.645   0.589
    1KAO     O  1507   2.257   2.104   0.594
    1KAO     H  1508   1.972   2.242   0.680
    1KAO     H  1509   1.976   2.520   0.687
    1KAO     H  1510   2.377   2.276   0.357
    1KAO     H  1511   2.253   2.349   0.691
    1KAO     H  1512   2.238   2.649   0.692
    1KAO     H  1513   2.246   2.035   0.679
    1KAO     Al 1514   1.971   2.199   1.225
    1KAO     Al 1515   1.986   2.489   1.211
    1KAO     Al 1516   2.242   2.639   1.225
    1KAO     Al 1517   2.227   2.043   1.218
    1KAO     Si 1518   1.900   2.069   0.929
    1KAO     Si 1519   1.906   2.338   0.951
    1KAO     Si 1520   2.145   2.509   0.944
    1KAO     Si 1521   2.154   1.919   0.937
    1KAO     O  1522   1.876   2.057   1.108
    1KAO     O  1523   1.900   2.343   1.096
    1KAO     O  1524   1.926   2.196   0.870
    1KAO     O  1525   2.015   1.956   0.875
    1KAO     O  1526   2.007   2.446   0.864
    1KAO     O  1527   2.146   2.505   1.099
    1KAO     O  1528   2.172   1.891   1.108
    1KAO     O  1529   2.164   1.762   0.872
    1KAO     O  1530   2.271   2.406   0.911
    1KAO     O  1531   2.276   1.993   0.877
    1KAO     O  1532   1.881   2.616   1.112
    1KAO     O  1533   1.833   2.160   1.307
    1KAO     O  1534   1.820   2.498   1.317
    1KAO     O  1535   2.133   2.170   1.106
    1KAO     O  1536   2.036   2.334   1.311
    1KAO     O  1537   2.075   2.616   1.301
    1KAO     O  1538   2.066   2.074   1.307
    1KAO     H  1539   1.781   2.212   1.392
    1KAO     H  1540   1.786   2.491   1.399
    1KAO     H  1541   2.187   2.246   1.069
    1KAO     H  1542   2.062   2.320   1.403
    1KAO     H  1543   2.048   2.619   1.404
    1KAO     H  1544   2.056   2.005   1.392
    1KAO     Al 1545   2.305   2.229   1.959
    1KAO     Al 1546   2.320   2.519   1.945
    1KAO     Al 1547   2.576   2.669   1.959
    1KAO     Al 1548   2.561   2.073   1.952
    1KAO     Si 1549   2.234   2.099   1.664
    1KAO     Si 1550   2.240   2.368   1.685
    1KAO     Si 1551   2.479   2.539   1.678
    1KAO     Si 1552   2.488   1.949   1.671
    1KAO     O  1553   2.210   2.087   1.843
    1KAO     O  1554   2.234   2.372   1.830
    1KAO     O  1555   2.260   2.225   1.604
    1KAO     O  1556   2.349   1.986   1.609
    1KAO     O  1557   2.341   2.476   1.599
    1KAO     O  1558   2.480   2.535   1.833
    1KAO     O  1559   2.506   1.921   1.843
    1KAO     O  1560   2.498   1.792   1.606
    1KAO     O  1561   0.028   2.436   1.645
    1KAO     O  1562   0.033   2.023   1.611
    1KAO     O  1563   2.215   2.646   1.846
    1KAO     O  1564   2.167   2.190   2.041
    1KAO     O  1565   2.154   2.528   2.051
    1KAO     O  1566   2.467   2.200   1.840
    1KAO     O  1567   2.370   2.364   2.045
    1KAO     O  1568   2.409   2.645   2.035
    1KAO     O  1569   2.400   2.104   2.041
    1KAO     H  1570   2.115   2.242   2.126
    1KAO     H  1571   2.120   2.520   2.134
    1KAO     H  1572   2.521   2.276   1.803
    1KAO     H  1573   2.396   2.349   2.137
    1KAO     H  1574   2.381   2.649   2.139
    1KAO     H  1575   2.390   2.035   2.126
    1KAO     Al 1576   2.115   2.199   2.671
    1KAO     Al 1577   2.129   2.489   2.658
    1KAO     Al 1578   2.385   2.639   2.671
    1KAO     Al 1579   2.371   2.043   2.664
    1KAO     Si 1580   2.043   2.069   2.376
    1KAO     Si 1581   2.049   2.338   2.397
    1KAO     Si 1582   2.289   2.509   2.390
    1KAO     Si 1583   2.298   1.919   2.384
    1KAO     O  1584   2.020   2.057   2.555
    1KAO     O  1585   2.044   2.343   2.543
    1KAO     O  1586   2.070   2.196   2.317
    1KAO     O  1587   2.159   1.956   2.322
    1KAO     O  1588   2.151   2.446   2.311
    1KAO     O  1589   2.290   2.505   2.546
    1KAO     O  1590   2.316   1.891   2.555
    1KAO     O  1591   2.308   1.762   2.319
    1KAO     O  1592   2.415   2.406   2.357
    1KAO     O  1593   2.420   1.993   2.323
    1KAO     O  1594   2.024   2.616   2.559
    1KAO     O  1595   1.976   2.160   2.753
    1KAO     O  1596   1.963   2.498   2.763
    1KAO     O  1597   2.277   2.170   2.553
    1KAO     O  1598   2.180   2.334   2.758
    1KAO     O  1599   2.219   2.616   2.748
    1KAO     O  1600   2.210   2.074   2.753
    1KAO     H  1601   1.925   2.212   2.839
    1KAO     H  1602   1.929   2.491   2.846
    1KAO     H  1603   2.330   2.246   2.516
    1KAO     H  1604   2.206   2.320   2.850
    1KAO     H  1605   2.191   2.619   2.851
    1KAO     H  1606   2.199   2.005   2.838
    1KAO     O  1607   2.287   0.112   1.306
    1KAO     H  1608   2.339   0.123   1.398
    1KAO     O  1609   2.290   1.007   1.306
    1KAO     H  1610   2.343   1.017   1.398
    2KAO     O  1611   0.097   2.656   0.872
    3KAO     O  1612   0.240   2.656   2.319
    4KAO     O  1613   0.612   2.656   0.872
    5KAO     O  1614   0.756   2.656   2.319
    6KAO     O  1615   1.127   2.656   0.872
    7KAO     O  1616   1.271   2.656   2.319
    8KAO     O  1617   1.643   2.656   0.872
    9KAO     O  1618   1.786   2.656   2.319
   10KAO     O  1619   2.158   2.656   0.872
   11KAO     O  1620   2.302   2.656   2.319
   12KAO     Al 1621   2.484   1.305   1.225
   12KAO     Al 1622   2.498   1.595   1.211
   12KAO     Si 1623   2.412   1.175   0.929
   12KAO     Si 1624   2.418   1.443   0.951
   12KAO     O  1625   2.389   1.163   1.108
   12KAO     O  1626   2.412   1.448   1.096
   12KAO     O  1627   2.439   1.301   0.870
   12KAO     O  1628   2.528   1.062   0.875
   12KAO     O  1629   2.519   1.552   0.864
   12KAO     O  1630   2.393   1.721   1.112
   12KAO     O  1631   2.345   1.266   1.307
   12KAO     O  1632   2.332   1.604   1.317
   12KAO     O  1633   2.548   1.440   1.311
   12KAO     H  1634   2.453   1.815   1.135
   12KAO     H  1635   2.294   1.318   1.392
   12KAO     H  1636   2.298   1.596   1.399
   12KAO     H  1637   2.575   1.425   1.403
   12KAO     H  1638   2.560   1.725   1.404
   12KAO     H  1639   2.568   1.111   1.392
   13KAO     Al 1640   0.050   1.305   2.671
   13KAO     Al 1641   0.064   1.595   2.658
   13KAO     O  1642   0.005   1.301   2.317
   13KAO     O  1643   0.094   1.062   2.322
   13KAO     O  1644   0.086   1.552   2.311
   13KAO     O  1645   0.115   1.440   2.758
   13KAO     H  1646   0.019   1.815   2.581
   13KAO     H  1647   0.141   1.425   2.850
   13KAO     H  1648   0.126   1.725   2.851
   13KAO     H  1649   0.134   1.111   2.838
   14KAO     Si 1650   2.555   1.175   2.376
   14KAO     Si 1651   2.561   1.443   2.397
   14KAO     O  1652   2.532   1.163   2.555
   14KAO     O  1653   2.556   1.448   2.543
   14KAO     O  1654   2.537   1.721   2.559
   14KAO     O  1655   2.488   1.266   2.753
   14KAO     O  1656   2.475   1.604   2.763
   14KAO     H  1657   2.437   1.318   2.839
   14KAO     H  1658   2.441   1.596   2.846
   15KAO     Al 1659   0.177   1.744   1.225
   15KAO     Al 1660   0.162   1.149   1.218
   15KAO     Si 1661   0.081   1.615   0.944
   15KAO     Si 1662   0.090   1.025   0.937
   15KAO     O  1663   0.082   1.611   1.099
   15KAO     O  1664   0.107   0.997   1.108
   15KAO     O  1665   0.100   0.868   0.872
   15KAO     O  1666   0.207   1.512   0.911
   15KAO     O  1667   0.212   1.099   0.877
   15KAO     O  1668   0.229   1.007   1.306
   15KAO     O  1669   0.069   1.275   1.106
   15KAO     O  1670   0.011   1.721   1.301
   15KAO     O  1671   0.002   1.180   1.307
   15KAO     H  1672   0.281   1.017   1.398
   15KAO     H  1673   0.122   1.352   1.069
   16KAO     Al 1674   0.321   1.744   2.671
   16KAO     Al 1675   0.306   1.149   2.664
   16KAO     Si 1676   0.224   1.615   2.390
   16KAO     Si 1677   0.233   1.025   2.384
   16KAO     O  1678   0.225   1.611   2.546
   16KAO     O  1679   0.251   0.997   2.555
   16KAO     O  1680   0.243   0.868   2.319
   16KAO     O  1681   0.350   1.512   2.357
   16KAO     O  1682   0.355   1.099   2.323
   16KAO     O  1683   0.372   1.007   2.753
   16KAO     O  1684   0.212   1.275   2.553
   16KAO     O  1685   0.154   1.721   2.748
   16KAO     O  1686   0.145   1.180   2.753
   16KAO     H  1687   0.425   1.017   2.845
   16KAO     H  1688   0.266   1.352   2.516
   17KAO     O  1689   2.535   1.296   0.594
   17KAO     O  1690   2.522   1.633   0.604
   17KAO     H  1691   2.484   1.347   0.680
   17KAO     H  1692   2.488   1.626   0.687
   18KAO     O  1693   0.102   1.296   2.041
   18KAO     O  1694   0.089   1.633   2.051
   18KAO     H  1695   0.051   1.347   2.126
   18KAO     H  1696   0.055   1.626   2.134
   19KAO     Al 1697   1.128   1.334   0.512
   19KAO     Al 1698   1.142   1.625   0.499
   19KAO     Al 1699   1.398   1.774   0.512
   19KAO     Al 1700   1.384   1.179   0.505
   19KAO     Si 1701   1.056   1.205   0.217
   19KAO     Si 1702   1.062   1.473   0.238
   19KAO     Si 1703   1.302   1.644   0.231
   19KAO     Si 1704   1.311   1.054   0.225
   19KAO     O  1705   1.033   1.193   0.396
   19KAO     O  1706   1.057   1.478   0.384
   19KAO     O  1707   1.083   1.331   0.158
   19KAO     O  1708   1.172   1.091   0.163
   19KAO     O  1709   1.164   1.582   0.152
   19KAO     O  1710   1.303   1.641   0.387
   19KAO     O  1711   1.329   1.027   0.396
   19KAO     O  1712   1.321   0.897   0.160
   19KAO     O  1713   1.428   1.542   0.198
   19KAO     O  1714   1.433   1.129   0.164
   19KAO     O  1715   1.037   1.751   0.400
   19KAO     O  1716   1.450   1.036   0.594
   19KAO     O  1717   0.989   1.296   0.594
   19KAO     O  1718   0.976   1.633   0.604
   19KAO     O  1719   1.290   1.305   0.394
   19KAO     O  1720   1.193   1.470   0.599
   19KAO     O  1721   1.232   1.751   0.589
   19KAO     O  1722   1.223   1.210   0.594
   19KAO     H  1723   1.097   1.844   0.422
   19KAO     H  1724   1.502   1.047   0.686
   19KAO     H  1725   0.938   1.347   0.680
   19KAO     H  1726   0.942   1.626   0.687
   19KAO     H  1727   1.343   1.382   0.357
   19KAO     H  1728   1.219   1.455   0.691
   19KAO     H  1729   1.204   1.755   0.692
   19KAO     H  1730   1.212   1.141   0.679
   20KAO     Al 1731   0.937   1.305   1.225
   20KAO     Al 1732   0.952   1.595   1.211
   20KAO     Al 1733   1.208   1.744   1.225
   20KAO     Al 1734   1.193   1.149   1.218
   20KAO     Si 1735   0.866   1.175   0.929
   20KAO     Si 1736   0.872   1.443   0.951
   20KAO     Si 1737   1.111   1.615   0.944
   20KAO     Si 1738   1.120   1.025   0.937
   20KAO     O  1739   0.842   1.163   1.108
   20KAO     O  1740   0.866   1.448   1.096
   20KAO     O  1741   0.892   1.301   0.870
   20KAO     O  1742   0.981   1.062   0.875
   20KAO     O  1743   0.973   1.552   0.864
   20KAO     O  1744   1.112   1.611   1.099
   20KAO     O  1745   1.138   0.997   1.108
   20KAO     O  1746   1.131   0.868   0.872
   20KAO     O  1747   1.237   1.512   0.911
   20KAO     O  1748   1.243   1.099   0.877
   20KAO     O  1749   0.847   1.721   1.112
   20KAO     O  1750   1.260   1.007   1.306
   20KAO     O  1751   0.799   1.266   1.307
   20KAO     O  1752   0.786   1.604   1.317
   20KAO     O  1753   1.099   1.275   1.106
   20KAO     O  1754   1.002   1.440   1.311
   20KAO     O  1755   1.041   1.721   1.301
   20KAO     O  1756   1.032   1.180   1.307
   20KAO     H  1757   0.907   1.815   1.135
   20KAO     H  1758   1.312   1.017   1.398
   20KAO     H  1759   0.747   1.318   1.392
   20KAO     H  1760   0.752   1.596   1.399
   20KAO     H  1761   1.153   1.352   1.069
   20KAO     H  1762   1.028   1.425   1.403
   20KAO     H  1763   1.014   1.725   1.404
   20KAO     H  1764   1.022   1.111   1.392
   21KAO     Al 1765   1.271   1.334   1.959
   21KAO     Al 1766   1.286   1.625   1.945
   21KAO     Al 1767   1.542   1.774   1.959
   21KAO     Al 1768   1.527   1.179   1.952
   21KAO     Si 1769   1.200   1.205   1.664
   21KAO     Si 1770   1.206   1.473   1.685
   21KAO     Si 1771   1.445   1.644   1.678
   21KAO     Si 1772   1.454   1.054   1.671
   21KAO     O  1773   1.176   1.193   1.843
   21KAO     O  1774   1.200   1.478   1.830
   21KAO     O  1775   1.226   1.331   1.604
   21KAO     O  1776   1.315   1.091   1.609
   21KAO     O  1777   1.307   1.582   1.599
   21KAO     O  1778   1.446   1.641   1.833
   21KAO     O  1779   1.472   1.027   1.843
   21KAO     O  1780   1.464   0.897   1.606
   21KAO     O  1781   1.571   1.542   1.645
   21KAO     O  1782   1.577   1.129   1.611
   21KAO     O  1783   1.181   1.751   1.846
   21KAO     O  1784   1.594   1.036   2.040
   21KAO     O  1785   1.133   1.296   2.041
   21KAO     O  1786   1.120   1.633   2.051
   21KAO     O  1787   1.433   1.305   1.840
   21KAO     O  1788   1.336   1.470   2.045
   21KAO     O  1789   1.375   1.751   2.035
   21KAO     O  1790   1.366   1.210   2.041
   21KAO     H  1791   1.241   1.844   1.869
   21KAO     H  1792   1.646   1.047   2.132
   21KAO     H  1793   1.081   1.347   2.126
   21KAO     H  1794   1.086   1.626   2.134
   21KAO     H  1795   1.487   1.382   1.803
   21KAO     H  1796   1.362   1.455   2.137
   21KAO     H  1797   1.348   1.755   2.139
   21KAO     H  1798   1.356   1.141   2.126
   22KAO     Al 1799   1.081   1.305   2.671
   22KAO     Al 1800   1.095   1.595   2.658
   22KAO     Al 1801   1.351   1.744   2.671
   22KAO     Al 1802   1.337   1.149   2.664
   22KAO     Si 1803   1.009   1.175   2.376
   22KAO     Si 1804   1.015   1.443   2.397
   22KAO     Si 1805   1.255   1.615   2.390
   22KAO     Si 1806   1.264   1.025   2.384
   22KAO     O  1807   0.986   1.163   2.555
   22KAO     O  1808   1.010   1.448   2.543
   22KAO     O  1809   1.036   1.301   2.317
   22KAO     O  1810   1.125   1.062   2.322
   22KAO     O  1811   1.117   1.552   2.311
   22KAO     O  1812   1.256   1.611   2.546
   22KAO     O  1813   1.282   0.997   2.555
   22KAO     O  1814   1.274   0.868   2.319
   22KAO     O  1815   1.381   1.512   2.357
   22KAO     O  1816   1.386   1.099   2.323
   22KAO     O  1817   0.990   1.721   2.559
   22KAO     O  1818   1.403   1.007   2.753
   22KAO     O  1819   0.942   1.266   2.753
   22KAO     O  1820   0.929   1.604   2.763
   22KAO     O  1821   1.243   1.275   2.553
   22KAO     O  1822   1.146   1.440   2.758
   22KAO     O  1823   1.185   1.721   2.748
   22KAO     O  1824   1.176   1.180   2.753
   22KAO     H  1825   1.050   1.815   2.581
   22KAO     H  1826   1.455   1.017   2.845
   22KAO     H  1827   0.891   1.318   2.839
   22KAO     H  1828   0.895   1.596   2.846
   22KAO     H  1829   1.296   1.352   2.516
   22KAO     H  1830   1.172   1.425   2.850
   22KAO     H  1831   1.157   1.725   2.851
   22KAO     H  1832   1.165   1.111   2.838
   23KAO     Al 1833   1.643   1.334   0.512
   23KAO     Al 1834   1.658   1.625   0.499
   23KAO     Al 1835   1.914   1.774   0.512
   23KAO     Al 1836   1.899   1.179   0.505
   23KAO     Si 1837   1.572   1.205   0.217
   23KAO     Si 1838   1.578   1.473   0.238
   23KAO     Si 1839   1.817   1.644   0.231
   23KAO     Si 1840   1.826   1.054   0.225
   23KAO     O  1841   1.548   1.193   0.396
   23KAO     O  1842   1.572   1.478   0.384
   23KAO     O  1843   1.598   1.331   0.158
   23KAO     O  1844   1.687   1.091   0.163
   23KAO     O  1845   1.679   1.582   0.152
   23KAO     O  1846   1.818   1.641   0.387
   23KAO     O  1847   1.844   1.027   0.396
   23KAO     O  1848   1.836   0.897   0.160
   23KAO     O  1849   1.943   1.542   0.198
   23KAO     O  1850   1.948   1.129   0.164
   23KAO     O  1851   1.553   1.751   0.400
   23KAO     O  1852   1.966   1.036   0.594
   23KAO     O  1853   1.504   1.296   0.594
   23KAO     O  1854   1.492   1.633   0.604
   23KAO     O  1855   1.805   1.305   0.394
   23KAO     O  1856   1.708   1.470   0.599
   23KAO     O  1857   1.747   1.751   0.589
   23KAO     O  1858   1.738   1.210   0.594
   23KAO     H  1859   1.612   1.844   0.422
   23KAO     H  1860   2.018   1.047   0.686
   23KAO     H  1861   1.453   1.347   0.680
   23KAO     H  1862   1.457   1.626   0.687
   23KAO     H  1863   1.859   1.382   0.357
   23KAO     H  1864   1.734   1.455   0.691
   23KAO     H  1865   1.719   1.755   0.692
   23KAO     H  1866   1.727   1.141   0.679
   24KAO     Al 1867   1.453   1.305   1.225
   24KAO     Al 1868   1.467   1.595   1.211
   24KAO     Al 1869   1.723   1.744   1.225
   24KAO     Al 1870   1.709   1.149   1.218
   24KAO     Si 1871   1.381   1.175   0.929
   24KAO     Si 1872   1.387   1.443   0.951
   24KAO     Si 1873   1.627   1.615   0.944
   24KAO     Si 1874   1.636   1.025   0.937
   24KAO     O  1875   1.358   1.163   1.108
   24KAO     O  1876   1.382   1.448   1.096
   24KAO     O  1877   1.408   1.301   0.870
   24KAO     O  1878   1.497   1.062   0.875
   24KAO     O  1879   1.489   1.552   0.864
   24KAO     O  1880   1.628   1.611   1.099
   24KAO     O  1881   1.653   0.997   1.108
   24KAO     O  1882   1.646   0.868   0.872
   24KAO     O  1883   1.753   1.512   0.911
   24KAO     O  1884   1.758   1.099   0.877
   24KAO     O  1885   1.362   1.721   1.112
   24KAO     O  1886   1.775   1.007   1.306
   24KAO     O  1887   1.314   1.266   1.307
   24KAO     O  1888   1.301   1.604   1.317
   24KAO     O  1889   1.615   1.275   1.106
   24KAO     O  1890   1.518   1.440   1.311
   24KAO     O  1891   1.557   1.721   1.301
   24KAO     O  1892   1.548   1.180   1.307
   24KAO     H  1893   1.422   1.815   1.135
   24KAO     H  1894   1.827   1.017   1.398
   24KAO     H  1895   1.263   1.318   1.392
   24KAO     H  1896   1.267   1.596   1.399
   24KAO     H  1897   1.668   1.352   1.069
   24KAO     H  1898   1.544   1.425   1.403
   24KAO     H  1899   1.529   1.725   1.404
   24KAO     H  1900   1.537   1.111   1.392
   25KAO     Al 1901   1.787   1.334   1.959
   25KAO     Al 1902   1.801   1.625   1.945
   25KAO     Al 1903   2.057   1.774   1.959
   25KAO     Al 1904   2.043   1.179   1.952
   25KAO     Si 1905   1.715   1.205   1.664
   25KAO     Si 1906   1.721   1.473   1.685
   25KAO     Si 1907   1.961   1.644   1.678
   25KAO     Si 1908   1.970   1.054   1.671
   25KAO     O  1909   1.692   1.193   1.843
   25KAO     O  1910   1.716   1.478   1.830
   25KAO     O  1911   1.742   1.331   1.604
   25KAO     O  1912   1.831   1.091   1.609
   25KAO     O  1913   1.823   1.582   1.599
   25KAO     O  1914   1.962   1.641   1.833
   25KAO     O  1915   1.987   1.027   1.843
   25KAO     O  1916   1.980   0.897   1.606
   25KAO     O  1917   2.087   1.542   1.645
   25KAO     O  1918   2.092   1.129   1.611
   25KAO     O  1919   1.696   1.751   1.846
   25KAO     O  1920   2.109   1.036   2.040
   25KAO     O  1921   1.648   1.296   2.041
   25KAO     O  1922   1.635   1.633   2.051
   25KAO     O  1923   1.949   1.305   1.840
   25KAO     O  1924   1.852   1.470   2.045
   25KAO     O  1925   1.891   1.751   2.035
   25KAO     O  1926   1.882   1.210   2.041
   25KAO     H  1927   1.756   1.844   1.869
   25KAO     H  1928   2.161   1.047   2.132
   25KAO     H  1929   1.597   1.347   2.126
   25KAO     H  1930   1.601   1.626   2.134
   25KAO     H  1931   2.002   1.382   1.803
   25KAO     H  1932   1.878   1.455   2.137
   25KAO     H  1933   1.863   1.755   2.139
   25KAO     H  1934   1.871   1.141   2.126
   26KAO     Al 1935   1.596   1.305   2.671
   26KAO     Al 1936   1.611   1.595   2.658
   26KAO     Al 1937   1.867   1.744   2.671
   26KAO     Al 1938   1.852   1.149   2.664
   26KAO     Si 1939   1.525   1.175   2.376
   26KAO     Si 1940   1.531   1.443   2.397
   26KAO     Si 1941   1.770   1.615   2.390
   26KAO     Si 1942   1.779   1.025   2.384
   26KAO     O  1943   1.501   1.163   2.555
   26KAO     O  1944   1.525   1.448   2.543
   26KAO     O  1945   1.551   1.301   2.317
   26KAO     O  1946   1.640   1.062   2.322
   26KAO     O  1947   1.632   1.552   2.311
   26KAO     O  1948   1.771   1.611   2.546
   26KAO     O  1949   1.797   0.997   2.555
   26KAO     O  1950   1.789   0.868   2.319
   26KAO     O  1951   1.896   1.512   2.357
   26KAO     O  1952   1.901   1.099   2.323
   26KAO     O  1953   1.506   1.721   2.559
   26KAO     O  1954   1.919   1.007   2.753
   26KAO     O  1955   1.458   1.266   2.753
   26KAO     O  1956   1.445   1.604   2.763
   26KAO     O  1957   1.758   1.275   2.553
   26KAO     O  1958   1.661   1.440   2.758
   26KAO     O  1959   1.700   1.721   2.748
   26KAO     O  1960   1.691   1.180   2.753
   26KAO     H  1961   1.565   1.815   2.581
   26KAO     H  1962   1.971   1.017   2.845
   26KAO     H  1963   1.406   1.318   2.839
   26KAO     H  1964   1.411   1.596   2.846
   26KAO     H  1965   1.812   1.352   2.516
   26KAO     H  1966   1.687   1.425   2.850
   26KAO     H  1967   1.673   1.725   2.851
   26KAO     H  1968   1.681   1.111   2.838
   27KAO     Al 1969   2.302   1.334   1.959
   27KAO     Al 1970   2.317   1.625   1.945
   27KAO     Al 1971   2.573   1.774   1.959
   27KAO     Al 1972   2.558   1.179   1.952
   27KAO     Si 1973   2.231   1.205   1.664
   27KAO     Si 1974   2.237   1.473   1.685
   27KAO     Si 1975   2.476   1.644   1.678
   27KAO     Si 1976   2.485   1.054   1.671
   27KAO     O  1977   2.207   1.193   1.843
   27KAO     O  1978   2.231   1.478   1.830
   27KAO     O  1979   2.257   1.331   1.604
   27KAO     O  1980   2.346   1.091   1.609
   27KAO     O  1981   2.338   1.582   1.599
   27KAO     O  1982   2.477   1.641   1.833
   27KAO     O  1983   2.503   1.027   1.843
   27KAO     O  1984   2.495   0.897   1.606
   27KAO     O  1985   2.212   1.751   1.846
   27KAO     O  1986   2.163   1.296   2.041
   27KAO     O  1987   2.151   1.633   2.051
   27KAO     O  1988   2.464   1.305   1.840
   27KAO     O  1989   2.367   1.470   2.045
   27KAO     O  1990   2.406   1.751   2.035
   27KAO     O  1991   2.397   1.210   2.041
   27KAO     H  1992   2.271   1.844   1.869
   27KAO     H  1993   2.112   1.347   2.126
   27KAO     H  1994   2.116   1.626   2.134
   27KAO     H  1995   2.518   1.382   1.803
   27KAO     H  1996   2.393   1.455   2.137
   27KAO     H  1997   2.378   1.755   2.139
   27KAO     H  1998   2.386   1.141   2.126
   28KAO     O  1999   0.025   1.542   1.645
   28KAO     O  2000   0.030   1.129   1.611
   29KAO     O  2001   2.478   0.142   0.594
   29KAO     H  2002   2.530   0.153   0.686
   30KAO     O  2003   0.044   0.142   2.040
   30KAO     H  2004   0.096   0.153   2.132
   31KAO     O  2005   2.431   0.112   2.753
   31KAO     H  2006   2.483   0.123   2.845
   32KAO     O  2007   2.481   1.036   0.594
   32KAO     H  2008   2.533   1.047   0.686
   33KAO     O  2009   0.047   1.036   2.040
   33KAO     H  2010   0.100   1.047   2.132
   34KAO     O  2011   2.434   1.007   2.753
   34KAO     H  2012   2.486   1.017   2.845
   35KAO     O  2013   2.484   1.931   0.594
   35KAO     H  2014   2.536   1.941   0.686
   36KAO     O  2015   2.294   1.901   1.306
   36KAO     H  2016   2.346   1.911   1.398
   37KAO     O  2017   0.051   1.931   2.040
   37KAO     H  2018   0.103   1.941   2.132
   38KAO     O  2019   2.437   1.901   2.753
   38KAO     H  2020   2.489   1.911   2.845
   39KAO     H  2021   0.060   0.056   0.422
   40KAO     H  2022   2.447   0.026   1.135
   41KAO     H  2023   0.203   0.056   1.869
   42KAO     H  2024   0.013   0.026   2.581
   43KAO     H  2025   0.575   0.056   0.422
   44KAO     H  2026   0.385   0.026   1.135
   45KAO     H  2027   0.719   0.056   1.869
   46KAO     H  2028   0.528   0.026   2.581
   47KAO     H  2029   1.091   0.056   0.422
   48KAO     H  2030   0.900   0.026   1.135
   49KAO     H  2031   1.234   0.056   1.869
   50KAO     H  2032   1.044   0.026   2.581
   51KAO     H  2033   1.606   0.056   0.422
   52KAO     H  2034   1.416   0.026   1.135
   53KAO     H  2035   1.750   0.056   1.869
   54KAO     H  2036   1.559   0.026   2.581
   55KAO     H  2037   2.122   0.056   0.422
   56KAO     H  2038   1.931   0.026   1.135
   57KAO     H  2039   2.265   0.056   1.869
   58KAO     H  2040   2.075   0.026   2.581
    2.57700 2.68260 18.41363 
