;Created using lmp2gro

[ moleculetype ]
; name       nrexcl
KAO               3
[ atoms ]
;  nr   type  resnr  residu  atom   cgnr    charge
    1  aoy     1 KAO     Al1                  1       1.575000
    2  aoy     1 KAO     Al2                  2       1.575000
    3  aoy     1 KAO     Al3                  3       1.575000
    4  aoy     1 KAO     Al4                  4       1.575000
    5  sty     1 KAO     Si5                  5       2.100000
    6  sty     1 KAO     Si6                  6       2.100000
    7  sty     1 KAO     Si7                  7       2.100000
    8  sty     1 KAO     Si8                  8       2.100000
    9  oby     1 KAO      O9                  9      -1.050000
   10  oby     1 KAO      O10                10      -1.050000
   11  oby     1 KAO      O11                11      -1.050000
   12  oby     1 KAO      O12                12      -1.050000
   13  oby     1 KAO      O13                13      -1.050000
   14  oby     1 KAO      O14                14      -1.050000
   15  oby     1 KAO      O15                15      -1.050000
   16  oby     1 KAO      O16                16      -1.050000
   17  oby     1 KAO      O17                17      -1.050000
   18  ohy     1 KAO      O18                18      -0.950000
   19  ohy     1 KAO      O19                19      -0.950000
   20  ohy     1 KAO      O20                20      -0.950000
   21  ohy     1 KAO      O21                21      -0.950000
   22  ohy     1 KAO      O22                22      -0.950000
   23  ohy     1 KAO      O23                23      -0.950000
   24  hoy     1 KAO      H24                24       0.425000
   25  hoy     1 KAO      H25                25       0.425000
   26  hoy     1 KAO      H26                26       0.425000
   27  hoy     1 KAO      H27                27       0.425000
   28  hoy     1 KAO      H28                28       0.425000
   29  hoy     1 KAO      H29                29       0.425000
   30  aoy     1 KAO     Al30                30       1.575000
   31  aoy     1 KAO     Al31                31       1.575000
   32  sty     1 KAO     Si32                32       2.100000
   33  sty     1 KAO     Si33                33       2.100000
   34  oby     1 KAO      O34                34      -1.050000
   35  oby     1 KAO      O35                35      -1.050000
   36  oby     1 KAO      O36                36      -1.050000
   37  oby     1 KAO      O37                37      -1.050000
   38  oby     1 KAO      O38                38      -1.050000
   39  ohy     1 KAO      O39                39      -0.950000
   40  ohy     1 KAO      O40                40      -0.950000
   41  ohy     1 KAO      O41                41      -0.950000
   42  ohy     1 KAO      O42                42      -0.950000
   43  ohy     1 KAO      O43                43      -0.950000
   44  hoy     1 KAO      H44                44       0.425000
   45  hoy     1 KAO      H45                45       0.425000
   46  hoy     1 KAO      H46                46       0.425000
   47  hoy     1 KAO      H47                47       0.425000
   48  hoy     1 KAO      H48                48       0.425000
   49  hoy     1 KAO      H49                49       0.425000
   50  aoy     1 KAO     Al50                50       1.575000
   51  aoy     1 KAO     Al51                51       1.575000
   52  aoy     1 KAO     Al52                52       1.575000
   53  aoy     1 KAO     Al53                53       1.575000
   54  sty     1 KAO     Si54                54       2.100000
   55  sty     1 KAO     Si55                55       2.100000
   56  sty     1 KAO     Si56                56       2.100000
   57  sty     1 KAO     Si57                57       2.100000
   58  oby     1 KAO      O58                58      -1.050000
   59  oby     1 KAO      O59                59      -1.050000
   60  oby     1 KAO      O60                60      -1.050000
   61  oby     1 KAO      O61                61      -1.050000
   62  oby     1 KAO      O62                62      -1.050000
   63  oby     1 KAO      O63                63      -1.050000
   64  oby     1 KAO      O64                64      -1.050000
   65  oby     1 KAO      O65                65      -1.050000
   66  oby     1 KAO      O66                66      -1.050000
   67  ohy     1 KAO      O67                67      -0.950000
   68  ohy     1 KAO      O68                68      -0.950000
   69  ohy     1 KAO      O69                69      -0.950000
   70  ohy     1 KAO      O70                70      -0.950000
   71  ohy     1 KAO      O71                71      -0.950000
   72  ohy     1 KAO      O72                72      -0.950000
   73  hoy     1 KAO      H73                73       0.425000
   74  hoy     1 KAO      H74                74       0.425000
   75  hoy     1 KAO      H75                75       0.425000
   76  hoy     1 KAO      H76                76       0.425000
   77  hoy     1 KAO      H77                77       0.425000
   78  hoy     1 KAO      H78                78       0.425000
   79  aoy     1 KAO     Al79                79       1.575000
   80  aoy     1 KAO     Al80                80       1.575000
   81  sty     1 KAO     Si81                81       2.100000
   82  sty     1 KAO     Si82                82       2.100000
   83  oby     1 KAO      O83                83      -1.050000
   84  oby     1 KAO      O84                84      -1.050000
   85  oby     1 KAO      O85                85      -1.050000
   86  oby     1 KAO      O86                86      -1.050000
   87  oby     1 KAO      O87                87      -1.050000
   88  ohy     1 KAO      O88                88      -0.950000
   89  ohy     1 KAO      O89                89      -0.950000
   90  ohy     1 KAO      O90                90      -0.950000
   91  ohy     1 KAO      O91                91      -0.950000
   92  ohy     1 KAO      O92                92      -0.950000
   93  hoy     1 KAO      H93                93       0.425000
   94  hoy     1 KAO      H94                94       0.425000
   95  hoy     1 KAO      H95                95       0.425000
   96  hoy     1 KAO      H96                96       0.425000
   97  hoy     1 KAO      H97                97       0.425000
   98  hoy     1 KAO      H98                98       0.425000
   99  aoy     1 KAO     Al99                99       1.575000
  100  aoy     1 KAO     Al100              100       1.575000
  101  sty     1 KAO     Si101              101       2.100000
  102  sty     1 KAO     Si102              102       2.100000
  103  oby     1 KAO      O103              103      -1.050000
  104  oby     1 KAO      O104              104      -1.050000
  105  oby     1 KAO      O105              105      -1.050000
  106  oby     1 KAO      O106              106      -1.050000
  107  ohy     1 KAO      O107              107      -0.950000
  108  ohy     1 KAO      O108              108      -0.950000
  109  ohy     1 KAO      O109              109      -0.950000
  110  hoy     1 KAO      H110              110       0.425000
  111  hoy     1 KAO      H111              111       0.425000
  112  aoy     1 KAO     Al112              112       1.575000
  113  aoy     1 KAO     Al113              113       1.575000
  114  sty     1 KAO     Si114              114       2.100000
  115  sty     1 KAO     Si115              115       2.100000
  116  oby     1 KAO      O116              116      -1.050000
  117  oby     1 KAO      O117              117      -1.050000
  118  oby     1 KAO      O118              118      -1.050000
  119  oby     1 KAO      O119              119      -1.050000
  120  ohy     1 KAO      O120              120      -0.950000
  121  ohy     1 KAO      O121              121      -0.950000
  122  ohy     1 KAO      O122              122      -0.950000
  123  hoy     1 KAO      H123              123       0.425000
  124  hoy     1 KAO      H124              124       0.425000
  125  oby     1 KAO      O125              125      -1.050000
  126  ohy     1 KAO      O126              126      -0.950000
  127  ohy     1 KAO      O127              127      -0.950000
  128  hoy     1 KAO      H128              128       0.425000
  129  hoy     1 KAO      H129              129       0.425000
  130  oby     1 KAO      O130              130      -1.050000
  131  ohy     1 KAO      O131              131      -0.950000
  132  ohy     1 KAO      O132              132      -0.950000
  133  hoy     1 KAO      H133              133       0.425000
  134  hoy     1 KAO      H134              134       0.425000
  135  aoy     1 KAO     Al135              135       1.575000
  136  aoy     1 KAO     Al136              136       1.575000
  137  aoy     1 KAO     Al137              137       1.575000
  138  aoy     1 KAO     Al138              138       1.575000
  139  sty     1 KAO     Si139              139       2.100000
  140  sty     1 KAO     Si140              140       2.100000
  141  sty     1 KAO     Si141              141       2.100000
  142  sty     1 KAO     Si142              142       2.100000
  143  oby     1 KAO      O143              143      -1.050000
  144  oby     1 KAO      O144              144      -1.050000
  145  oby     1 KAO      O145              145      -1.050000
  146  oby     1 KAO      O146              146      -1.050000
  147  oby     1 KAO      O147              147      -1.050000
  148  oby     1 KAO      O148              148      -1.050000
  149  oby     1 KAO      O149              149      -1.050000
  150  oby     1 KAO      O150              150      -1.050000
  151  oby     1 KAO      O151              151      -1.050000
  152  oby     1 KAO      O152              152      -1.050000
  153  ohy     1 KAO      O153              153      -0.950000
  154  ohy     1 KAO      O154              154      -0.950000
  155  ohy     1 KAO      O155              155      -0.950000
  156  ohy     1 KAO      O156              156      -0.950000
  157  ohy     1 KAO      O157              157      -0.950000
  158  ohy     1 KAO      O158              158      -0.950000
  159  ohy     1 KAO      O159              159      -0.950000
  160  ohy     1 KAO      O160              160      -0.950000
  161  hoy     1 KAO      H161              161       0.425000
  162  hoy     1 KAO      H162              162       0.425000
  163  hoy     1 KAO      H163              163       0.425000
  164  hoy     1 KAO      H164              164       0.425000
  165  hoy     1 KAO      H165              165       0.425000
  166  hoy     1 KAO      H166              166       0.425000
  167  hoy     1 KAO      H167              167       0.425000
  168  hoy     1 KAO      H168              168       0.425000
  169  aoy     1 KAO     Al169              169       1.575000
  170  aoy     1 KAO     Al170              170       1.575000
  171  aoy     1 KAO     Al171              171       1.575000
  172  aoy     1 KAO     Al172              172       1.575000
  173  sty     1 KAO     Si173              173       2.100000
  174  sty     1 KAO     Si174              174       2.100000
  175  sty     1 KAO     Si175              175       2.100000
  176  sty     1 KAO     Si176              176       2.100000
  177  oby     1 KAO      O177              177      -1.050000
  178  oby     1 KAO      O178              178      -1.050000
  179  oby     1 KAO      O179              179      -1.050000
  180  oby     1 KAO      O180              180      -1.050000
  181  oby     1 KAO      O181              181      -1.050000
  182  oby     1 KAO      O182              182      -1.050000
  183  oby     1 KAO      O183              183      -1.050000
  184  oby     1 KAO      O184              184      -1.050000
  185  oby     1 KAO      O185              185      -1.050000
  186  ohy     1 KAO      O186              186      -0.950000
  187  ohy     1 KAO      O187              187      -0.950000
  188  ohy     1 KAO      O188              188      -0.950000
  189  ohy     1 KAO      O189              189      -0.950000
  190  ohy     1 KAO      O190              190      -0.950000
  191  ohy     1 KAO      O191              191      -0.950000
  192  ohy     1 KAO      O192              192      -0.950000
  193  ohy     1 KAO      O193              193      -0.950000
  194  hoy     1 KAO      H194              194       0.425000
  195  hoy     1 KAO      H195              195       0.425000
  196  hoy     1 KAO      H196              196       0.425000
  197  hoy     1 KAO      H197              197       0.425000
  198  hoy     1 KAO      H198              198       0.425000
  199  hoy     1 KAO      H199              199       0.425000
  200  hoy     1 KAO      H200              200       0.425000
  201  hoy     1 KAO      H201              201       0.425000
  202  aoy     1 KAO     Al202              202       1.575000
  203  aoy     1 KAO     Al203              203       1.575000
  204  aoy     1 KAO     Al204              204       1.575000
  205  aoy     1 KAO     Al205              205       1.575000
  206  sty     1 KAO     Si206              206       2.100000
  207  sty     1 KAO     Si207              207       2.100000
  208  sty     1 KAO     Si208              208       2.100000
  209  sty     1 KAO     Si209              209       2.100000
  210  oby     1 KAO      O210              210      -1.050000
  211  oby     1 KAO      O211              211      -1.050000
  212  oby     1 KAO      O212              212      -1.050000
  213  oby     1 KAO      O213              213      -1.050000
  214  oby     1 KAO      O214              214      -1.050000
  215  oby     1 KAO      O215              215      -1.050000
  216  oby     1 KAO      O216              216      -1.050000
  217  oby     1 KAO      O217              217      -1.050000
  218  oby     1 KAO      O218              218      -1.050000
  219  oby     1 KAO      O219              219      -1.050000
  220  ohy     1 KAO      O220              220      -0.950000
  221  ohy     1 KAO      O221              221      -0.950000
  222  ohy     1 KAO      O222              222      -0.950000
  223  ohy     1 KAO      O223              223      -0.950000
  224  ohy     1 KAO      O224              224      -0.950000
  225  ohy     1 KAO      O225              225      -0.950000
  226  ohy     1 KAO      O226              226      -0.950000
  227  ohy     1 KAO      O227              227      -0.950000
  228  hoy     1 KAO      H228              228       0.425000
  229  hoy     1 KAO      H229              229       0.425000
  230  hoy     1 KAO      H230              230       0.425000
  231  hoy     1 KAO      H231              231       0.425000
  232  hoy     1 KAO      H232              232       0.425000
  233  hoy     1 KAO      H233              233       0.425000
  234  hoy     1 KAO      H234              234       0.425000
  235  hoy     1 KAO      H235              235       0.425000
  236  aoy     1 KAO     Al236              236       1.575000
  237  aoy     1 KAO     Al237              237       1.575000
  238  aoy     1 KAO     Al238              238       1.575000
  239  aoy     1 KAO     Al239              239       1.575000
  240  sty     1 KAO     Si240              240       2.100000
  241  sty     1 KAO     Si241              241       2.100000
  242  sty     1 KAO     Si242              242       2.100000
  243  sty     1 KAO     Si243              243       2.100000
  244  oby     1 KAO      O244              244      -1.050000
  245  oby     1 KAO      O245              245      -1.050000
  246  oby     1 KAO      O246              246      -1.050000
  247  oby     1 KAO      O247              247      -1.050000
  248  oby     1 KAO      O248              248      -1.050000
  249  oby     1 KAO      O249              249      -1.050000
  250  oby     1 KAO      O250              250      -1.050000
  251  oby     1 KAO      O251              251      -1.050000
  252  oby     1 KAO      O252              252      -1.050000
  253  ohy     1 KAO      O253              253      -0.950000
  254  ohy     1 KAO      O254              254      -0.950000
  255  ohy     1 KAO      O255              255      -0.950000
  256  ohy     1 KAO      O256              256      -0.950000
  257  ohy     1 KAO      O257              257      -0.950000
  258  ohy     1 KAO      O258              258      -0.950000
  259  ohy     1 KAO      O259              259      -0.950000
  260  ohy     1 KAO      O260              260      -0.950000
  261  hoy     1 KAO      H261              261       0.425000
  262  hoy     1 KAO      H262              262       0.425000
  263  hoy     1 KAO      H263              263       0.425000
  264  hoy     1 KAO      H264              264       0.425000
  265  hoy     1 KAO      H265              265       0.425000
  266  hoy     1 KAO      H266              266       0.425000
  267  hoy     1 KAO      H267              267       0.425000
  268  hoy     1 KAO      H268              268       0.425000
  269  aoy     1 KAO     Al269              269       1.575000
  270  aoy     1 KAO     Al270              270       1.575000
  271  aoy     1 KAO     Al271              271       1.575000
  272  aoy     1 KAO     Al272              272       1.575000
  273  sty     1 KAO     Si273              273       2.100000
  274  sty     1 KAO     Si274              274       2.100000
  275  sty     1 KAO     Si275              275       2.100000
  276  sty     1 KAO     Si276              276       2.100000
  277  oby     1 KAO      O277              277      -1.050000
  278  oby     1 KAO      O278              278      -1.050000
  279  oby     1 KAO      O279              279      -1.050000
  280  oby     1 KAO      O280              280      -1.050000
  281  oby     1 KAO      O281              281      -1.050000
  282  oby     1 KAO      O282              282      -1.050000
  283  oby     1 KAO      O283              283      -1.050000
  284  oby     1 KAO      O284              284      -1.050000
  285  oby     1 KAO      O285              285      -1.050000
  286  oby     1 KAO      O286              286      -1.050000
  287  ohy     1 KAO      O287              287      -0.950000
  288  ohy     1 KAO      O288              288      -0.950000
  289  ohy     1 KAO      O289              289      -0.950000
  290  ohy     1 KAO      O290              290      -0.950000
  291  ohy     1 KAO      O291              291      -0.950000
  292  ohy     1 KAO      O292              292      -0.950000
  293  ohy     1 KAO      O293              293      -0.950000
  294  ohy     1 KAO      O294              294      -0.950000
  295  hoy     1 KAO      H295              295       0.425000
  296  hoy     1 KAO      H296              296       0.425000
  297  hoy     1 KAO      H297              297       0.425000
  298  hoy     1 KAO      H298              298       0.425000
  299  hoy     1 KAO      H299              299       0.425000
  300  hoy     1 KAO      H300              300       0.425000
  301  hoy     1 KAO      H301              301       0.425000
  302  hoy     1 KAO      H302              302       0.425000
  303  aoy     1 KAO     Al303              303       1.575000
  304  aoy     1 KAO     Al304              304       1.575000
  305  aoy     1 KAO     Al305              305       1.575000
  306  aoy     1 KAO     Al306              306       1.575000
  307  sty     1 KAO     Si307              307       2.100000
  308  sty     1 KAO     Si308              308       2.100000
  309  sty     1 KAO     Si309              309       2.100000
  310  sty     1 KAO     Si310              310       2.100000
  311  oby     1 KAO      O311              311      -1.050000
  312  oby     1 KAO      O312              312      -1.050000
  313  oby     1 KAO      O313              313      -1.050000
  314  oby     1 KAO      O314              314      -1.050000
  315  oby     1 KAO      O315              315      -1.050000
  316  oby     1 KAO      O316              316      -1.050000
  317  oby     1 KAO      O317              317      -1.050000
  318  oby     1 KAO      O318              318      -1.050000
  319  oby     1 KAO      O319              319      -1.050000
  320  ohy     1 KAO      O320              320      -0.950000
  321  ohy     1 KAO      O321              321      -0.950000
  322  ohy     1 KAO      O322              322      -0.950000
  323  ohy     1 KAO      O323              323      -0.950000
  324  ohy     1 KAO      O324              324      -0.950000
  325  ohy     1 KAO      O325              325      -0.950000
  326  ohy     1 KAO      O326              326      -0.950000
  327  ohy     1 KAO      O327              327      -0.950000
  328  hoy     1 KAO      H328              328       0.425000
  329  hoy     1 KAO      H329              329       0.425000
  330  hoy     1 KAO      H330              330       0.425000
  331  hoy     1 KAO      H331              331       0.425000
  332  hoy     1 KAO      H332              332       0.425000
  333  hoy     1 KAO      H333              333       0.425000
  334  hoy     1 KAO      H334              334       0.425000
  335  hoy     1 KAO      H335              335       0.425000
  336  aoy     1 KAO     Al336              336       1.575000
  337  aoy     1 KAO     Al337              337       1.575000
  338  aoy     1 KAO     Al338              338       1.575000
  339  aoy     1 KAO     Al339              339       1.575000
  340  sty     1 KAO     Si340              340       2.100000
  341  sty     1 KAO     Si341              341       2.100000
  342  sty     1 KAO     Si342              342       2.100000
  343  sty     1 KAO     Si343              343       2.100000
  344  oby     1 KAO      O344              344      -1.050000
  345  oby     1 KAO      O345              345      -1.050000
  346  oby     1 KAO      O346              346      -1.050000
  347  oby     1 KAO      O347              347      -1.050000
  348  oby     1 KAO      O348              348      -1.050000
  349  oby     1 KAO      O349              349      -1.050000
  350  oby     1 KAO      O350              350      -1.050000
  351  oby     1 KAO      O351              351      -1.050000
  352  oby     1 KAO      O352              352      -1.050000
  353  oby     1 KAO      O353              353      -1.050000
  354  ohy     1 KAO      O354              354      -0.950000
  355  ohy     1 KAO      O355              355      -0.950000
  356  ohy     1 KAO      O356              356      -0.950000
  357  ohy     1 KAO      O357              357      -0.950000
  358  ohy     1 KAO      O358              358      -0.950000
  359  ohy     1 KAO      O359              359      -0.950000
  360  ohy     1 KAO      O360              360      -0.950000
  361  ohy     1 KAO      O361              361      -0.950000
  362  hoy     1 KAO      H362              362       0.425000
  363  hoy     1 KAO      H363              363       0.425000
  364  hoy     1 KAO      H364              364       0.425000
  365  hoy     1 KAO      H365              365       0.425000
  366  hoy     1 KAO      H366              366       0.425000
  367  hoy     1 KAO      H367              367       0.425000
  368  hoy     1 KAO      H368              368       0.425000
  369  hoy     1 KAO      H369              369       0.425000
  370  aoy     1 KAO     Al370              370       1.575000
  371  aoy     1 KAO     Al371              371       1.575000
  372  aoy     1 KAO     Al372              372       1.575000
  373  aoy     1 KAO     Al373              373       1.575000
  374  sty     1 KAO     Si374              374       2.100000
  375  sty     1 KAO     Si375              375       2.100000
  376  sty     1 KAO     Si376              376       2.100000
  377  sty     1 KAO     Si377              377       2.100000
  378  oby     1 KAO      O378              378      -1.050000
  379  oby     1 KAO      O379              379      -1.050000
  380  oby     1 KAO      O380              380      -1.050000
  381  oby     1 KAO      O381              381      -1.050000
  382  oby     1 KAO      O382              382      -1.050000
  383  oby     1 KAO      O383              383      -1.050000
  384  oby     1 KAO      O384              384      -1.050000
  385  oby     1 KAO      O385              385      -1.050000
  386  oby     1 KAO      O386              386      -1.050000
  387  ohy     1 KAO      O387              387      -0.950000
  388  ohy     1 KAO      O388              388      -0.950000
  389  ohy     1 KAO      O389              389      -0.950000
  390  ohy     1 KAO      O390              390      -0.950000
  391  ohy     1 KAO      O391              391      -0.950000
  392  ohy     1 KAO      O392              392      -0.950000
  393  ohy     1 KAO      O393              393      -0.950000
  394  ohy     1 KAO      O394              394      -0.950000
  395  hoy     1 KAO      H395              395       0.425000
  396  hoy     1 KAO      H396              396       0.425000
  397  hoy     1 KAO      H397              397       0.425000
  398  hoy     1 KAO      H398              398       0.425000
  399  hoy     1 KAO      H399              399       0.425000
  400  hoy     1 KAO      H400              400       0.425000
  401  hoy     1 KAO      H401              401       0.425000
  402  hoy     1 KAO      H402              402       0.425000
  403  aoy     1 KAO     Al403              403       1.575000
  404  aoy     1 KAO     Al404              404       1.575000
  405  aoy     1 KAO     Al405              405       1.575000
  406  aoy     1 KAO     Al406              406       1.575000
  407  sty     1 KAO     Si407              407       2.100000
  408  sty     1 KAO     Si408              408       2.100000
  409  sty     1 KAO     Si409              409       2.100000
  410  sty     1 KAO     Si410              410       2.100000
  411  oby     1 KAO      O411              411      -1.050000
  412  oby     1 KAO      O412              412      -1.050000
  413  oby     1 KAO      O413              413      -1.050000
  414  oby     1 KAO      O414              414      -1.050000
  415  oby     1 KAO      O415              415      -1.050000
  416  oby     1 KAO      O416              416      -1.050000
  417  oby     1 KAO      O417              417      -1.050000
  418  oby     1 KAO      O418              418      -1.050000
  419  oby     1 KAO      O419              419      -1.050000
  420  oby     1 KAO      O420              420      -1.050000
  421  ohy     1 KAO      O421              421      -0.950000
  422  ohy     1 KAO      O422              422      -0.950000
  423  ohy     1 KAO      O423              423      -0.950000
  424  ohy     1 KAO      O424              424      -0.950000
  425  ohy     1 KAO      O425              425      -0.950000
  426  ohy     1 KAO      O426              426      -0.950000
  427  ohy     1 KAO      O427              427      -0.950000
  428  ohy     1 KAO      O428              428      -0.950000
  429  hoy     1 KAO      H429              429       0.425000
  430  hoy     1 KAO      H430              430       0.425000
  431  hoy     1 KAO      H431              431       0.425000
  432  hoy     1 KAO      H432              432       0.425000
  433  hoy     1 KAO      H433              433       0.425000
  434  hoy     1 KAO      H434              434       0.425000
  435  hoy     1 KAO      H435              435       0.425000
  436  hoy     1 KAO      H436              436       0.425000
  437  aoy     1 KAO     Al437              437       1.575000
  438  aoy     1 KAO     Al438              438       1.575000
  439  aoy     1 KAO     Al439              439       1.575000
  440  aoy     1 KAO     Al440              440       1.575000
  441  sty     1 KAO     Si441              441       2.100000
  442  sty     1 KAO     Si442              442       2.100000
  443  sty     1 KAO     Si443              443       2.100000
  444  sty     1 KAO     Si444              444       2.100000
  445  oby     1 KAO      O445              445      -1.050000
  446  oby     1 KAO      O446              446      -1.050000
  447  oby     1 KAO      O447              447      -1.050000
  448  oby     1 KAO      O448              448      -1.050000
  449  oby     1 KAO      O449              449      -1.050000
  450  oby     1 KAO      O450              450      -1.050000
  451  oby     1 KAO      O451              451      -1.050000
  452  oby     1 KAO      O452              452      -1.050000
  453  oby     1 KAO      O453              453      -1.050000
  454  ohy     1 KAO      O454              454      -0.950000
  455  ohy     1 KAO      O455              455      -0.950000
  456  ohy     1 KAO      O456              456      -0.950000
  457  ohy     1 KAO      O457              457      -0.950000
  458  ohy     1 KAO      O458              458      -0.950000
  459  ohy     1 KAO      O459              459      -0.950000
  460  ohy     1 KAO      O460              460      -0.950000
  461  ohy     1 KAO      O461              461      -0.950000
  462  hoy     1 KAO      H462              462       0.425000
  463  hoy     1 KAO      H463              463       0.425000
  464  hoy     1 KAO      H464              464       0.425000
  465  hoy     1 KAO      H465              465       0.425000
  466  hoy     1 KAO      H466              466       0.425000
  467  hoy     1 KAO      H467              467       0.425000
  468  hoy     1 KAO      H468              468       0.425000
  469  hoy     1 KAO      H469              469       0.425000
  470  aoy     1 KAO     Al470              470       1.575000
  471  aoy     1 KAO     Al471              471       1.575000
  472  aoy     1 KAO     Al472              472       1.575000
  473  aoy     1 KAO     Al473              473       1.575000
  474  sty     1 KAO     Si474              474       2.100000
  475  sty     1 KAO     Si475              475       2.100000
  476  sty     1 KAO     Si476              476       2.100000
  477  sty     1 KAO     Si477              477       2.100000
  478  oby     1 KAO      O478              478      -1.050000
  479  oby     1 KAO      O479              479      -1.050000
  480  oby     1 KAO      O480              480      -1.050000
  481  oby     1 KAO      O481              481      -1.050000
  482  oby     1 KAO      O482              482      -1.050000
  483  oby     1 KAO      O483              483      -1.050000
  484  oby     1 KAO      O484              484      -1.050000
  485  oby     1 KAO      O485              485      -1.050000
  486  oby     1 KAO      O486              486      -1.050000
  487  oby     1 KAO      O487              487      -1.050000
  488  ohy     1 KAO      O488              488      -0.950000
  489  ohy     1 KAO      O489              489      -0.950000
  490  ohy     1 KAO      O490              490      -0.950000
  491  ohy     1 KAO      O491              491      -0.950000
  492  ohy     1 KAO      O492              492      -0.950000
  493  ohy     1 KAO      O493              493      -0.950000
  494  ohy     1 KAO      O494              494      -0.950000
  495  ohy     1 KAO      O495              495      -0.950000
  496  hoy     1 KAO      H496              496       0.425000
  497  hoy     1 KAO      H497              497       0.425000
  498  hoy     1 KAO      H498              498       0.425000
  499  hoy     1 KAO      H499              499       0.425000
  500  hoy     1 KAO      H500              500       0.425000
  501  hoy     1 KAO      H501              501       0.425000
  502  hoy     1 KAO      H502              502       0.425000
  503  hoy     1 KAO      H503              503       0.425000
  504  aoy     1 KAO     Al504              504       1.575000
  505  aoy     1 KAO     Al505              505       1.575000
  506  aoy     1 KAO     Al506              506       1.575000
  507  aoy     1 KAO     Al507              507       1.575000
  508  sty     1 KAO     Si508              508       2.100000
  509  sty     1 KAO     Si509              509       2.100000
  510  sty     1 KAO     Si510              510       2.100000
  511  sty     1 KAO     Si511              511       2.100000
  512  oby     1 KAO      O512              512      -1.050000
  513  oby     1 KAO      O513              513      -1.050000
  514  oby     1 KAO      O514              514      -1.050000
  515  oby     1 KAO      O515              515      -1.050000
  516  oby     1 KAO      O516              516      -1.050000
  517  oby     1 KAO      O517              517      -1.050000
  518  oby     1 KAO      O518              518      -1.050000
  519  oby     1 KAO      O519              519      -1.050000
  520  oby     1 KAO      O520              520      -1.050000
  521  ohy     1 KAO      O521              521      -0.950000
  522  ohy     1 KAO      O522              522      -0.950000
  523  ohy     1 KAO      O523              523      -0.950000
  524  ohy     1 KAO      O524              524      -0.950000
  525  ohy     1 KAO      O525              525      -0.950000
  526  ohy     1 KAO      O526              526      -0.950000
  527  ohy     1 KAO      O527              527      -0.950000
  528  ohy     1 KAO      O528              528      -0.950000
  529  hoy     1 KAO      H529              529       0.425000
  530  hoy     1 KAO      H530              530       0.425000
  531  hoy     1 KAO      H531              531       0.425000
  532  hoy     1 KAO      H532              532       0.425000
  533  hoy     1 KAO      H533              533       0.425000
  534  hoy     1 KAO      H534              534       0.425000
  535  hoy     1 KAO      H535              535       0.425000
  536  hoy     1 KAO      H536              536       0.425000
  537  aoy     1 KAO     Al537              537       1.575000
  538  aoy     1 KAO     Al538              538       1.575000
  539  aoy     1 KAO     Al539              539       1.575000
  540  aoy     1 KAO     Al540              540       1.575000
  541  sty     1 KAO     Si541              541       2.100000
  542  sty     1 KAO     Si542              542       2.100000
  543  sty     1 KAO     Si543              543       2.100000
  544  sty     1 KAO     Si544              544       2.100000
  545  oby     1 KAO      O545              545      -1.050000
  546  oby     1 KAO      O546              546      -1.050000
  547  oby     1 KAO      O547              547      -1.050000
  548  oby     1 KAO      O548              548      -1.050000
  549  oby     1 KAO      O549              549      -1.050000
  550  oby     1 KAO      O550              550      -1.050000
  551  oby     1 KAO      O551              551      -1.050000
  552  oby     1 KAO      O552              552      -1.050000
  553  oby     1 KAO      O553              553      -1.050000
  554  oby     1 KAO      O554              554      -1.050000
  555  ohy     1 KAO      O555              555      -0.950000
  556  ohy     1 KAO      O556              556      -0.950000
  557  ohy     1 KAO      O557              557      -0.950000
  558  ohy     1 KAO      O558              558      -0.950000
  559  ohy     1 KAO      O559              559      -0.950000
  560  ohy     1 KAO      O560              560      -0.950000
  561  ohy     1 KAO      O561              561      -0.950000
  562  hoy     1 KAO      H562              562       0.425000
  563  hoy     1 KAO      H563              563       0.425000
  564  hoy     1 KAO      H564              564       0.425000
  565  hoy     1 KAO      H565              565       0.425000
  566  hoy     1 KAO      H566              566       0.425000
  567  hoy     1 KAO      H567              567       0.425000
  568  hoy     1 KAO      H568              568       0.425000
  569  aoy     1 KAO     Al569              569       1.575000
  570  aoy     1 KAO     Al570              570       1.575000
  571  aoy     1 KAO     Al571              571       1.575000
  572  aoy     1 KAO     Al572              572       1.575000
  573  sty     1 KAO     Si573              573       2.100000
  574  sty     1 KAO     Si574              574       2.100000
  575  sty     1 KAO     Si575              575       2.100000
  576  sty     1 KAO     Si576              576       2.100000
  577  oby     1 KAO      O577              577      -1.050000
  578  oby     1 KAO      O578              578      -1.050000
  579  oby     1 KAO      O579              579      -1.050000
  580  oby     1 KAO      O580              580      -1.050000
  581  oby     1 KAO      O581              581      -1.050000
  582  oby     1 KAO      O582              582      -1.050000
  583  oby     1 KAO      O583              583      -1.050000
  584  oby     1 KAO      O584              584      -1.050000
  585  oby     1 KAO      O585              585      -1.050000
  586  ohy     1 KAO      O586              586      -0.950000
  587  ohy     1 KAO      O587              587      -0.950000
  588  ohy     1 KAO      O588              588      -0.950000
  589  ohy     1 KAO      O589              589      -0.950000
  590  ohy     1 KAO      O590              590      -0.950000
  591  ohy     1 KAO      O591              591      -0.950000
  592  ohy     1 KAO      O592              592      -0.950000
  593  hoy     1 KAO      H593              593       0.425000
  594  hoy     1 KAO      H594              594       0.425000
  595  hoy     1 KAO      H595              595       0.425000
  596  hoy     1 KAO      H596              596       0.425000
  597  hoy     1 KAO      H597              597       0.425000
  598  hoy     1 KAO      H598              598       0.425000
  599  hoy     1 KAO      H599              599       0.425000
  600  aoy     1 KAO     Al600              600       1.575000
  601  aoy     1 KAO     Al601              601       1.575000
  602  aoy     1 KAO     Al602              602       1.575000
  603  aoy     1 KAO     Al603              603       1.575000
  604  sty     1 KAO     Si604              604       2.100000
  605  sty     1 KAO     Si605              605       2.100000
  606  sty     1 KAO     Si606              606       2.100000
  607  sty     1 KAO     Si607              607       2.100000
  608  oby     1 KAO      O608              608      -1.050000
  609  oby     1 KAO      O609              609      -1.050000
  610  oby     1 KAO      O610              610      -1.050000
  611  oby     1 KAO      O611              611      -1.050000
  612  oby     1 KAO      O612              612      -1.050000
  613  oby     1 KAO      O613              613      -1.050000
  614  oby     1 KAO      O614              614      -1.050000
  615  oby     1 KAO      O615              615      -1.050000
  616  oby     1 KAO      O616              616      -1.050000
  617  oby     1 KAO      O617              617      -1.050000
  618  ohy     1 KAO      O618              618      -0.950000
  619  ohy     1 KAO      O619              619      -0.950000
  620  ohy     1 KAO      O620              620      -0.950000
  621  ohy     1 KAO      O621              621      -0.950000
  622  ohy     1 KAO      O622              622      -0.950000
  623  ohy     1 KAO      O623              623      -0.950000
  624  ohy     1 KAO      O624              624      -0.950000
  625  hoy     1 KAO      H625              625       0.425000
  626  hoy     1 KAO      H626              626       0.425000
  627  hoy     1 KAO      H627              627       0.425000
  628  hoy     1 KAO      H628              628       0.425000
  629  hoy     1 KAO      H629              629       0.425000
  630  hoy     1 KAO      H630              630       0.425000
  631  hoy     1 KAO      H631              631       0.425000
  632  aoy     1 KAO     Al632              632       1.575000
  633  aoy     1 KAO     Al633              633       1.575000
  634  aoy     1 KAO     Al634              634       1.575000
  635  aoy     1 KAO     Al635              635       1.575000
  636  sty     1 KAO     Si636              636       2.100000
  637  sty     1 KAO     Si637              637       2.100000
  638  sty     1 KAO     Si638              638       2.100000
  639  sty     1 KAO     Si639              639       2.100000
  640  oby     1 KAO      O640              640      -1.050000
  641  oby     1 KAO      O641              641      -1.050000
  642  oby     1 KAO      O642              642      -1.050000
  643  oby     1 KAO      O643              643      -1.050000
  644  oby     1 KAO      O644              644      -1.050000
  645  oby     1 KAO      O645              645      -1.050000
  646  oby     1 KAO      O646              646      -1.050000
  647  oby     1 KAO      O647              647      -1.050000
  648  oby     1 KAO      O648              648      -1.050000
  649  ohy     1 KAO      O649              649      -0.950000
  650  ohy     1 KAO      O650              650      -0.950000
  651  ohy     1 KAO      O651              651      -0.950000
  652  ohy     1 KAO      O652              652      -0.950000
  653  ohy     1 KAO      O653              653      -0.950000
  654  ohy     1 KAO      O654              654      -0.950000
  655  ohy     1 KAO      O655              655      -0.950000
  656  hoy     1 KAO      H656              656       0.425000
  657  hoy     1 KAO      H657              657       0.425000
  658  hoy     1 KAO      H658              658       0.425000
  659  hoy     1 KAO      H659              659       0.425000
  660  hoy     1 KAO      H660              660       0.425000
  661  hoy     1 KAO      H661              661       0.425000
  662  hoy     1 KAO      H662              662       0.425000
  663  aoy     1 KAO     Al663              663       1.575000
  664  aoy     1 KAO     Al664              664       1.575000
  665  aoy     1 KAO     Al665              665       1.575000
  666  aoy     1 KAO     Al666              666       1.575000
  667  sty     1 KAO     Si667              667       2.100000
  668  sty     1 KAO     Si668              668       2.100000
  669  sty     1 KAO     Si669              669       2.100000
  670  sty     1 KAO     Si670              670       2.100000
  671  oby     1 KAO      O671              671      -1.050000
  672  oby     1 KAO      O672              672      -1.050000
  673  oby     1 KAO      O673              673      -1.050000
  674  oby     1 KAO      O674              674      -1.050000
  675  oby     1 KAO      O675              675      -1.050000
  676  oby     1 KAO      O676              676      -1.050000
  677  oby     1 KAO      O677              677      -1.050000
  678  oby     1 KAO      O678              678      -1.050000
  679  oby     1 KAO      O679              679      -1.050000
  680  oby     1 KAO      O680              680      -1.050000
  681  ohy     1 KAO      O681              681      -0.950000
  682  ohy     1 KAO      O682              682      -0.950000
  683  ohy     1 KAO      O683              683      -0.950000
  684  ohy     1 KAO      O684              684      -0.950000
  685  ohy     1 KAO      O685              685      -0.950000
  686  ohy     1 KAO      O686              686      -0.950000
  687  hoy     1 KAO      H687              687       0.425000
  688  hoy     1 KAO      H688              688       0.425000
  689  hoy     1 KAO      H689              689       0.425000
  690  hoy     1 KAO      H690              690       0.425000
  691  hoy     1 KAO      H691              691       0.425000
  692  hoy     1 KAO      H692              692       0.425000
  693  aoy     1 KAO     Al693              693       1.575000
  694  aoy     1 KAO     Al694              694       1.575000
  695  aoy     1 KAO     Al695              695       1.575000
  696  aoy     1 KAO     Al696              696       1.575000
  697  sty     1 KAO     Si697              697       2.100000
  698  sty     1 KAO     Si698              698       2.100000
  699  sty     1 KAO     Si699              699       2.100000
  700  sty     1 KAO     Si700              700       2.100000
  701  oby     1 KAO      O701              701      -1.050000
  702  oby     1 KAO      O702              702      -1.050000
  703  oby     1 KAO      O703              703      -1.050000
  704  oby     1 KAO      O704              704      -1.050000
  705  oby     1 KAO      O705              705      -1.050000
  706  oby     1 KAO      O706              706      -1.050000
  707  oby     1 KAO      O707              707      -1.050000
  708  oby     1 KAO      O708              708      -1.050000
  709  oby     1 KAO      O709              709      -1.050000
  710  oby     1 KAO      O710              710      -1.050000
  711  ohy     1 KAO      O711              711      -0.950000
  712  ohy     1 KAO      O712              712      -0.950000
  713  ohy     1 KAO      O713              713      -0.950000
  714  ohy     1 KAO      O714              714      -0.950000
  715  ohy     1 KAO      O715              715      -0.950000
  716  ohy     1 KAO      O716              716      -0.950000
  717  hoy     1 KAO      H717              717       0.425000
  718  hoy     1 KAO      H718              718       0.425000
  719  hoy     1 KAO      H719              719       0.425000
  720  hoy     1 KAO      H720              720       0.425000
  721  hoy     1 KAO      H721              721       0.425000
  722  hoy     1 KAO      H722              722       0.425000
  723  aoy     1 KAO     Al723              723       1.575000
  724  aoy     1 KAO     Al724              724       1.575000
  725  aoy     1 KAO     Al725              725       1.575000
  726  aoy     1 KAO     Al726              726       1.575000
  727  sty     1 KAO     Si727              727       2.100000
  728  sty     1 KAO     Si728              728       2.100000
  729  sty     1 KAO     Si729              729       2.100000
  730  sty     1 KAO     Si730              730       2.100000
  731  oby     1 KAO      O731              731      -1.050000
  732  oby     1 KAO      O732              732      -1.050000
  733  oby     1 KAO      O733              733      -1.050000
  734  oby     1 KAO      O734              734      -1.050000
  735  oby     1 KAO      O735              735      -1.050000
  736  oby     1 KAO      O736              736      -1.050000
  737  oby     1 KAO      O737              737      -1.050000
  738  oby     1 KAO      O738              738      -1.050000
  739  oby     1 KAO      O739              739      -1.050000
  740  oby     1 KAO      O740              740      -1.050000
  741  ohy     1 KAO      O741              741      -0.950000
  742  ohy     1 KAO      O742              742      -0.950000
  743  ohy     1 KAO      O743              743      -0.950000
  744  ohy     1 KAO      O744              744      -0.950000
  745  ohy     1 KAO      O745              745      -0.950000
  746  ohy     1 KAO      O746              746      -0.950000
  747  ohy     1 KAO      O747              747      -0.950000
  748  ohy     1 KAO      O748              748      -0.950000
  749  hoy     1 KAO      H749              749       0.425000
  750  hoy     1 KAO      H750              750       0.425000
  751  hoy     1 KAO      H751              751       0.425000
  752  hoy     1 KAO      H752              752       0.425000
  753  hoy     1 KAO      H753              753       0.425000
  754  hoy     1 KAO      H754              754       0.425000
  755  hoy     1 KAO      H755              755       0.425000
  756  hoy     1 KAO      H756              756       0.425000
  757  aoy     1 KAO     Al757              757       1.575000
  758  aoy     1 KAO     Al758              758       1.575000
  759  aoy     1 KAO     Al759              759       1.575000
  760  aoy     1 KAO     Al760              760       1.575000
  761  sty     1 KAO     Si761              761       2.100000
  762  sty     1 KAO     Si762              762       2.100000
  763  sty     1 KAO     Si763              763       2.100000
  764  sty     1 KAO     Si764              764       2.100000
  765  oby     1 KAO      O765              765      -1.050000
  766  oby     1 KAO      O766              766      -1.050000
  767  oby     1 KAO      O767              767      -1.050000
  768  oby     1 KAO      O768              768      -1.050000
  769  oby     1 KAO      O769              769      -1.050000
  770  oby     1 KAO      O770              770      -1.050000
  771  oby     1 KAO      O771              771      -1.050000
  772  oby     1 KAO      O772              772      -1.050000
  773  oby     1 KAO      O773              773      -1.050000
  774  oby     1 KAO      O774              774      -1.050000
  775  ohy     1 KAO      O775              775      -0.950000
  776  ohy     1 KAO      O776              776      -0.950000
  777  ohy     1 KAO      O777              777      -0.950000
  778  ohy     1 KAO      O778              778      -0.950000
  779  ohy     1 KAO      O779              779      -0.950000
  780  ohy     1 KAO      O780              780      -0.950000
  781  ohy     1 KAO      O781              781      -0.950000
  782  ohy     1 KAO      O782              782      -0.950000
  783  hoy     1 KAO      H783              783       0.425000
  784  hoy     1 KAO      H784              784       0.425000
  785  hoy     1 KAO      H785              785       0.425000
  786  hoy     1 KAO      H786              786       0.425000
  787  hoy     1 KAO      H787              787       0.425000
  788  hoy     1 KAO      H788              788       0.425000
  789  hoy     1 KAO      H789              789       0.425000
  790  hoy     1 KAO      H790              790       0.425000
  791  aoy     1 KAO     Al791              791       1.575000
  792  aoy     1 KAO     Al792              792       1.575000
  793  aoy     1 KAO     Al793              793       1.575000
  794  aoy     1 KAO     Al794              794       1.575000
  795  sty     1 KAO     Si795              795       2.100000
  796  sty     1 KAO     Si796              796       2.100000
  797  sty     1 KAO     Si797              797       2.100000
  798  sty     1 KAO     Si798              798       2.100000
  799  oby     1 KAO      O799              799      -1.050000
  800  oby     1 KAO      O800              800      -1.050000
  801  oby     1 KAO      O801              801      -1.050000
  802  oby     1 KAO      O802              802      -1.050000
  803  oby     1 KAO      O803              803      -1.050000
  804  oby     1 KAO      O804              804      -1.050000
  805  oby     1 KAO      O805              805      -1.050000
  806  oby     1 KAO      O806              806      -1.050000
  807  oby     1 KAO      O807              807      -1.050000
  808  oby     1 KAO      O808              808      -1.050000
  809  ohy     1 KAO      O809              809      -0.950000
  810  ohy     1 KAO      O810              810      -0.950000
  811  ohy     1 KAO      O811              811      -0.950000
  812  ohy     1 KAO      O812              812      -0.950000
  813  ohy     1 KAO      O813              813      -0.950000
  814  ohy     1 KAO      O814              814      -0.950000
  815  ohy     1 KAO      O815              815      -0.950000
  816  ohy     1 KAO      O816              816      -0.950000
  817  hoy     1 KAO      H817              817       0.425000
  818  hoy     1 KAO      H818              818       0.425000
  819  hoy     1 KAO      H819              819       0.425000
  820  hoy     1 KAO      H820              820       0.425000
  821  hoy     1 KAO      H821              821       0.425000
  822  hoy     1 KAO      H822              822       0.425000
  823  hoy     1 KAO      H823              823       0.425000
  824  hoy     1 KAO      H824              824       0.425000
  825  aoy     1 KAO     Al825              825       1.575000
  826  aoy     1 KAO     Al826              826       1.575000
  827  aoy     1 KAO     Al827              827       1.575000
  828  aoy     1 KAO     Al828              828       1.575000
  829  sty     1 KAO     Si829              829       2.100000
  830  sty     1 KAO     Si830              830       2.100000
  831  sty     1 KAO     Si831              831       2.100000
  832  sty     1 KAO     Si832              832       2.100000
  833  oby     1 KAO      O833              833      -1.050000
  834  oby     1 KAO      O834              834      -1.050000
  835  oby     1 KAO      O835              835      -1.050000
  836  oby     1 KAO      O836              836      -1.050000
  837  oby     1 KAO      O837              837      -1.050000
  838  oby     1 KAO      O838              838      -1.050000
  839  oby     1 KAO      O839              839      -1.050000
  840  oby     1 KAO      O840              840      -1.050000
  841  oby     1 KAO      O841              841      -1.050000
  842  oby     1 KAO      O842              842      -1.050000
  843  ohy     1 KAO      O843              843      -0.950000
  844  ohy     1 KAO      O844              844      -0.950000
  845  ohy     1 KAO      O845              845      -0.950000
  846  ohy     1 KAO      O846              846      -0.950000
  847  ohy     1 KAO      O847              847      -0.950000
  848  ohy     1 KAO      O848              848      -0.950000
  849  ohy     1 KAO      O849              849      -0.950000
  850  ohy     1 KAO      O850              850      -0.950000
  851  hoy     1 KAO      H851              851       0.425000
  852  hoy     1 KAO      H852              852       0.425000
  853  hoy     1 KAO      H853              853       0.425000
  854  hoy     1 KAO      H854              854       0.425000
  855  hoy     1 KAO      H855              855       0.425000
  856  hoy     1 KAO      H856              856       0.425000
  857  hoy     1 KAO      H857              857       0.425000
  858  hoy     1 KAO      H858              858       0.425000
  859  aoy     1 KAO     Al859              859       1.575000
  860  aoy     1 KAO     Al860              860       1.575000
  861  aoy     1 KAO     Al861              861       1.575000
  862  aoy     1 KAO     Al862              862       1.575000
  863  sty     1 KAO     Si863              863       2.100000
  864  sty     1 KAO     Si864              864       2.100000
  865  sty     1 KAO     Si865              865       2.100000
  866  sty     1 KAO     Si866              866       2.100000
  867  oby     1 KAO      O867              867      -1.050000
  868  oby     1 KAO      O868              868      -1.050000
  869  oby     1 KAO      O869              869      -1.050000
  870  oby     1 KAO      O870              870      -1.050000
  871  oby     1 KAO      O871              871      -1.050000
  872  oby     1 KAO      O872              872      -1.050000
  873  oby     1 KAO      O873              873      -1.050000
  874  oby     1 KAO      O874              874      -1.050000
  875  oby     1 KAO      O875              875      -1.050000
  876  oby     1 KAO      O876              876      -1.050000
  877  ohy     1 KAO      O877              877      -0.950000
  878  ohy     1 KAO      O878              878      -0.950000
  879  ohy     1 KAO      O879              879      -0.950000
  880  ohy     1 KAO      O880              880      -0.950000
  881  ohy     1 KAO      O881              881      -0.950000
  882  ohy     1 KAO      O882              882      -0.950000
  883  ohy     1 KAO      O883              883      -0.950000
  884  hoy     1 KAO      H884              884       0.425000
  885  hoy     1 KAO      H885              885       0.425000
  886  hoy     1 KAO      H886              886       0.425000
  887  hoy     1 KAO      H887              887       0.425000
  888  hoy     1 KAO      H888              888       0.425000
  889  hoy     1 KAO      H889              889       0.425000
  890  hoy     1 KAO      H890              890       0.425000
  891  aoy     1 KAO     Al891              891       1.575000
  892  aoy     1 KAO     Al892              892       1.575000
  893  aoy     1 KAO     Al893              893       1.575000
  894  aoy     1 KAO     Al894              894       1.575000
  895  sty     1 KAO     Si895              895       2.100000
  896  sty     1 KAO     Si896              896       2.100000
  897  sty     1 KAO     Si897              897       2.100000
  898  sty     1 KAO     Si898              898       2.100000
  899  oby     1 KAO      O899              899      -1.050000
  900  oby     1 KAO      O900              900      -1.050000
  901  oby     1 KAO      O901              901      -1.050000
  902  oby     1 KAO      O902              902      -1.050000
  903  oby     1 KAO      O903              903      -1.050000
  904  oby     1 KAO      O904              904      -1.050000
  905  oby     1 KAO      O905              905      -1.050000
  906  oby     1 KAO      O906              906      -1.050000
  907  oby     1 KAO      O907              907      -1.050000
  908  oby     1 KAO      O908              908      -1.050000
  909  ohy     1 KAO      O909              909      -0.950000
  910  ohy     1 KAO      O910              910      -0.950000
  911  ohy     1 KAO      O911              911      -0.950000
  912  ohy     1 KAO      O912              912      -0.950000
  913  ohy     1 KAO      O913              913      -0.950000
  914  ohy     1 KAO      O914              914      -0.950000
  915  ohy     1 KAO      O915              915      -0.950000
  916  hoy     1 KAO      H916              916       0.425000
  917  hoy     1 KAO      H917              917       0.425000
  918  hoy     1 KAO      H918              918       0.425000
  919  hoy     1 KAO      H919              919       0.425000
  920  hoy     1 KAO      H920              920       0.425000
  921  hoy     1 KAO      H921              921       0.425000
  922  hoy     1 KAO      H922              922       0.425000
  923  aoy     1 KAO     Al923              923       1.575000
  924  aoy     1 KAO     Al924              924       1.575000
  925  aoy     1 KAO     Al925              925       1.575000
  926  aoy     1 KAO     Al926              926       1.575000
  927  sty     1 KAO     Si927              927       2.100000
  928  sty     1 KAO     Si928              928       2.100000
  929  sty     1 KAO     Si929              929       2.100000
  930  sty     1 KAO     Si930              930       2.100000
  931  oby     1 KAO      O931              931      -1.050000
  932  oby     1 KAO      O932              932      -1.050000
  933  oby     1 KAO      O933              933      -1.050000
  934  oby     1 KAO      O934              934      -1.050000
  935  oby     1 KAO      O935              935      -1.050000
  936  oby     1 KAO      O936              936      -1.050000
  937  oby     1 KAO      O937              937      -1.050000
  938  oby     1 KAO      O938              938      -1.050000
  939  oby     1 KAO      O939              939      -1.050000
  940  oby     1 KAO      O940              940      -1.050000
  941  ohy     1 KAO      O941              941      -0.950000
  942  ohy     1 KAO      O942              942      -0.950000
  943  ohy     1 KAO      O943              943      -0.950000
  944  ohy     1 KAO      O944              944      -0.950000
  945  ohy     1 KAO      O945              945      -0.950000
  946  ohy     1 KAO      O946              946      -0.950000
  947  ohy     1 KAO      O947              947      -0.950000
  948  hoy     1 KAO      H948              948       0.425000
  949  hoy     1 KAO      H949              949       0.425000
  950  hoy     1 KAO      H950              950       0.425000
  951  hoy     1 KAO      H951              951       0.425000
  952  hoy     1 KAO      H952              952       0.425000
  953  hoy     1 KAO      H953              953       0.425000
  954  hoy     1 KAO      H954              954       0.425000
  955  aoy     1 KAO     Al955              955       1.575000
  956  aoy     1 KAO     Al956              956       1.575000
  957  aoy     1 KAO     Al957              957       1.575000
  958  aoy     1 KAO     Al958              958       1.575000
  959  sty     1 KAO     Si959              959       2.100000
  960  sty     1 KAO     Si960              960       2.100000
  961  sty     1 KAO     Si961              961       2.100000
  962  sty     1 KAO     Si962              962       2.100000
  963  oby     1 KAO      O963              963      -1.050000
  964  oby     1 KAO      O964              964      -1.050000
  965  oby     1 KAO      O965              965      -1.050000
  966  oby     1 KAO      O966              966      -1.050000
  967  oby     1 KAO      O967              967      -1.050000
  968  oby     1 KAO      O968              968      -1.050000
  969  oby     1 KAO      O969              969      -1.050000
  970  oby     1 KAO      O970              970      -1.050000
  971  oby     1 KAO      O971              971      -1.050000
  972  oby     1 KAO      O972              972      -1.050000
  973  ohy     1 KAO      O973              973      -0.950000
  974  ohy     1 KAO      O974              974      -0.950000
  975  ohy     1 KAO      O975              975      -0.950000
  976  ohy     1 KAO      O976              976      -0.950000
  977  ohy     1 KAO      O977              977      -0.950000
  978  ohy     1 KAO      O978              978      -0.950000
  979  hoy     1 KAO      H979              979       0.425000
  980  hoy     1 KAO      H980              980       0.425000
  981  hoy     1 KAO      H981              981       0.425000
  982  hoy     1 KAO      H982              982       0.425000
  983  hoy     1 KAO      H983              983       0.425000
  984  aoy     1 KAO     Al984              984       1.575000
  985  aoy     1 KAO     Al985              985       1.575000
  986  sty     1 KAO     Si986              986       2.100000
  987  sty     1 KAO     Si987              987       2.100000
  988  oby     1 KAO      O988              988      -1.050000
  989  oby     1 KAO      O989              989      -1.050000
  990  oby     1 KAO      O990              990      -1.050000
  991  oby     1 KAO      O991              991      -1.050000
  992  oby     1 KAO      O992              992      -1.050000
  993  ohy     1 KAO      O993              993      -0.950000
  994  ohy     1 KAO      O994              994      -0.950000
  995  ohy     1 KAO      O995              995      -0.950000
  996  ohy     1 KAO      O996              996      -0.950000
  997  hoy     1 KAO      H997              997       0.425000
  998  hoy     1 KAO      H998              998       0.425000
  999  hoy     1 KAO      H999              999       0.425000
 1000  hoy     1 KAO      H1000            1000       0.425000
 1001  aoy     1 KAO     Al1001            1001       1.575000
 1002  aoy     1 KAO     Al1002            1002       1.575000
 1003  aoy     1 KAO     Al1003            1003       1.575000
 1004  aoy     1 KAO     Al1004            1004       1.575000
 1005  sty     1 KAO     Si1005            1005       2.100000
 1006  sty     1 KAO     Si1006            1006       2.100000
 1007  sty     1 KAO     Si1007            1007       2.100000
 1008  sty     1 KAO     Si1008            1008       2.100000
 1009  oby     1 KAO      O1009            1009      -1.050000
 1010  oby     1 KAO      O1010            1010      -1.050000
 1011  oby     1 KAO      O1011            1011      -1.050000
 1012  oby     1 KAO      O1012            1012      -1.050000
 1013  oby     1 KAO      O1013            1013      -1.050000
 1014  oby     1 KAO      O1014            1014      -1.050000
 1015  oby     1 KAO      O1015            1015      -1.050000
 1016  oby     1 KAO      O1016            1016      -1.050000
 1017  oby     1 KAO      O1017            1017      -1.050000
 1018  oby     1 KAO      O1018            1018      -1.050000
 1019  ohy     1 KAO      O1019            1019      -0.950000
 1020  ohy     1 KAO      O1020            1020      -0.950000
 1021  ohy     1 KAO      O1021            1021      -0.950000
 1022  ohy     1 KAO      O1022            1022      -0.950000
 1023  ohy     1 KAO      O1023            1023      -0.950000
 1024  ohy     1 KAO      O1024            1024      -0.950000
 1025  hoy     1 KAO      H1025            1025       0.425000
 1026  hoy     1 KAO      H1026            1026       0.425000
 1027  hoy     1 KAO      H1027            1027       0.425000
 1028  hoy     1 KAO      H1028            1028       0.425000
 1029  hoy     1 KAO      H1029            1029       0.425000
 1030  aoy     1 KAO     Al1030            1030       1.575000
 1031  aoy     1 KAO     Al1031            1031       1.575000
 1032  sty     1 KAO     Si1032            1032       2.100000
 1033  sty     1 KAO     Si1033            1033       2.100000
 1034  oby     1 KAO      O1034            1034      -1.050000
 1035  oby     1 KAO      O1035            1035      -1.050000
 1036  oby     1 KAO      O1036            1036      -1.050000
 1037  oby     1 KAO      O1037            1037      -1.050000
 1038  oby     1 KAO      O1038            1038      -1.050000
 1039  ohy     1 KAO      O1039            1039      -0.950000
 1040  ohy     1 KAO      O1040            1040      -0.950000
 1041  ohy     1 KAO      O1041            1041      -0.950000
 1042  ohy     1 KAO      O1042            1042      -0.950000
 1043  hoy     1 KAO      H1043            1043       0.425000
 1044  hoy     1 KAO      H1044            1044       0.425000
 1045  hoy     1 KAO      H1045            1045       0.425000
 1046  hoy     1 KAO      H1046            1046       0.425000
 1047  aoy     1 KAO     Al1047            1047       1.575000
 1048  aoy     1 KAO     Al1048            1048       1.575000
 1049  sty     1 KAO     Si1049            1049       2.100000
 1050  sty     1 KAO     Si1050            1050       2.100000
 1051  oby     1 KAO      O1051            1051      -1.050000
 1052  oby     1 KAO      O1052            1052      -1.050000
 1053  oby     1 KAO      O1053            1053      -1.050000
 1054  oby     1 KAO      O1054            1054      -1.050000
 1055  oby     1 KAO      O1055            1055      -1.050000
 1056  ohy     1 KAO      O1056            1056      -0.950000
 1057  ohy     1 KAO      O1057            1057      -0.950000
 1058  ohy     1 KAO      O1058            1058      -0.950000
 1059  ohy     1 KAO      O1059            1059      -0.950000
 1060  hoy     1 KAO      H1060            1060       0.425000
 1061  hoy     1 KAO      H1061            1061       0.425000
 1062  hoy     1 KAO      H1062            1062       0.425000
 1063  aoy     1 KAO     Al1063            1063       1.575000
 1064  aoy     1 KAO     Al1064            1064       1.575000
 1065  sty     1 KAO     Si1065            1065       2.100000
 1066  sty     1 KAO     Si1066            1066       2.100000
 1067  oby     1 KAO      O1067            1067      -1.050000
 1068  oby     1 KAO      O1068            1068      -1.050000
 1069  oby     1 KAO      O1069            1069      -1.050000
 1070  oby     1 KAO      O1070            1070      -1.050000
 1071  oby     1 KAO      O1071            1071      -1.050000
 1072  ohy     1 KAO      O1072            1072      -0.950000
 1073  ohy     1 KAO      O1073            1073      -0.950000
 1074  ohy     1 KAO      O1074            1074      -0.950000
 1075  ohy     1 KAO      O1075            1075      -0.950000
 1076  hoy     1 KAO      H1076            1076       0.425000
 1077  hoy     1 KAO      H1077            1077       0.425000
 1078  hoy     1 KAO      H1078            1078       0.425000
 1079  ohy     1 KAO      O1079            1079      -0.950000
 1080  ohy     1 KAO      O1080            1080      -0.950000
 1081  hoy     1 KAO      H1081            1081       0.425000
 1082  hoy     1 KAO      H1082            1082       0.425000
 1083  ohy     1 KAO      O1083            1083      -0.950000
 1084  ohy     1 KAO      O1084            1084      -0.950000
 1085  hoy     1 KAO      H1085            1085       0.425000
 1086  hoy     1 KAO      H1086            1086       0.425000
 1087  aoy     1 KAO     Al1087            1087       1.575000
 1088  aoy     1 KAO     Al1088            1088       1.575000
 1089  aoy     1 KAO     Al1089            1089       1.575000
 1090  aoy     1 KAO     Al1090            1090       1.575000
 1091  sty     1 KAO     Si1091            1091       2.100000
 1092  sty     1 KAO     Si1092            1092       2.100000
 1093  sty     1 KAO     Si1093            1093       2.100000
 1094  sty     1 KAO     Si1094            1094       2.100000
 1095  oby     1 KAO      O1095            1095      -1.050000
 1096  oby     1 KAO      O1096            1096      -1.050000
 1097  oby     1 KAO      O1097            1097      -1.050000
 1098  oby     1 KAO      O1098            1098      -1.050000
 1099  oby     1 KAO      O1099            1099      -1.050000
 1100  oby     1 KAO      O1100            1100      -1.050000
 1101  oby     1 KAO      O1101            1101      -1.050000
 1102  oby     1 KAO      O1102            1102      -1.050000
 1103  oby     1 KAO      O1103            1103      -1.050000
 1104  oby     1 KAO      O1104            1104      -1.050000
 1105  ohy     1 KAO      O1105            1105      -0.950000
 1106  ohy     1 KAO      O1106            1106      -0.950000
 1107  ohy     1 KAO      O1107            1107      -0.950000
 1108  ohy     1 KAO      O1108            1108      -0.950000
 1109  ohy     1 KAO      O1109            1109      -0.950000
 1110  ohy     1 KAO      O1110            1110      -0.950000
 1111  ohy     1 KAO      O1111            1111      -0.950000
 1112  ohy     1 KAO      O1112            1112      -0.950000
 1113  hoy     1 KAO      H1113            1113       0.425000
 1114  hoy     1 KAO      H1114            1114       0.425000
 1115  hoy     1 KAO      H1115            1115       0.425000
 1116  hoy     1 KAO      H1116            1116       0.425000
 1117  hoy     1 KAO      H1117            1117       0.425000
 1118  hoy     1 KAO      H1118            1118       0.425000
 1119  hoy     1 KAO      H1119            1119       0.425000
 1120  aoy     1 KAO     Al1120            1120       1.575000
 1121  aoy     1 KAO     Al1121            1121       1.575000
 1122  aoy     1 KAO     Al1122            1122       1.575000
 1123  aoy     1 KAO     Al1123            1123       1.575000
 1124  sty     1 KAO     Si1124            1124       2.100000
 1125  sty     1 KAO     Si1125            1125       2.100000
 1126  sty     1 KAO     Si1126            1126       2.100000
 1127  sty     1 KAO     Si1127            1127       2.100000
 1128  oby     1 KAO      O1128            1128      -1.050000
 1129  oby     1 KAO      O1129            1129      -1.050000
 1130  oby     1 KAO      O1130            1130      -1.050000
 1131  oby     1 KAO      O1131            1131      -1.050000
 1132  oby     1 KAO      O1132            1132      -1.050000
 1133  oby     1 KAO      O1133            1133      -1.050000
 1134  oby     1 KAO      O1134            1134      -1.050000
 1135  oby     1 KAO      O1135            1135      -1.050000
 1136  oby     1 KAO      O1136            1136      -1.050000
 1137  oby     1 KAO      O1137            1137      -1.050000
 1138  ohy     1 KAO      O1138            1138      -0.950000
 1139  ohy     1 KAO      O1139            1139      -0.950000
 1140  ohy     1 KAO      O1140            1140      -0.950000
 1141  ohy     1 KAO      O1141            1141      -0.950000
 1142  ohy     1 KAO      O1142            1142      -0.950000
 1143  ohy     1 KAO      O1143            1143      -0.950000
 1144  ohy     1 KAO      O1144            1144      -0.950000
 1145  ohy     1 KAO      O1145            1145      -0.950000
 1146  hoy     1 KAO      H1146            1146       0.425000
 1147  hoy     1 KAO      H1147            1147       0.425000
 1148  hoy     1 KAO      H1148            1148       0.425000
 1149  hoy     1 KAO      H1149            1149       0.425000
 1150  hoy     1 KAO      H1150            1150       0.425000
 1151  hoy     1 KAO      H1151            1151       0.425000
 1152  hoy     1 KAO      H1152            1152       0.425000
 1153  aoy     1 KAO     Al1153            1153       1.575000
 1154  aoy     1 KAO     Al1154            1154       1.575000
 1155  aoy     1 KAO     Al1155            1155       1.575000
 1156  aoy     1 KAO     Al1156            1156       1.575000
 1157  sty     1 KAO     Si1157            1157       2.100000
 1158  sty     1 KAO     Si1158            1158       2.100000
 1159  sty     1 KAO     Si1159            1159       2.100000
 1160  sty     1 KAO     Si1160            1160       2.100000
 1161  oby     1 KAO      O1161            1161      -1.050000
 1162  oby     1 KAO      O1162            1162      -1.050000
 1163  oby     1 KAO      O1163            1163      -1.050000
 1164  oby     1 KAO      O1164            1164      -1.050000
 1165  oby     1 KAO      O1165            1165      -1.050000
 1166  oby     1 KAO      O1166            1166      -1.050000
 1167  oby     1 KAO      O1167            1167      -1.050000
 1168  oby     1 KAO      O1168            1168      -1.050000
 1169  oby     1 KAO      O1169            1169      -1.050000
 1170  oby     1 KAO      O1170            1170      -1.050000
 1171  ohy     1 KAO      O1171            1171      -0.950000
 1172  ohy     1 KAO      O1172            1172      -0.950000
 1173  ohy     1 KAO      O1173            1173      -0.950000
 1174  ohy     1 KAO      O1174            1174      -0.950000
 1175  ohy     1 KAO      O1175            1175      -0.950000
 1176  ohy     1 KAO      O1176            1176      -0.950000
 1177  ohy     1 KAO      O1177            1177      -0.950000
 1178  ohy     1 KAO      O1178            1178      -0.950000
 1179  hoy     1 KAO      H1179            1179       0.425000
 1180  hoy     1 KAO      H1180            1180       0.425000
 1181  hoy     1 KAO      H1181            1181       0.425000
 1182  hoy     1 KAO      H1182            1182       0.425000
 1183  hoy     1 KAO      H1183            1183       0.425000
 1184  hoy     1 KAO      H1184            1184       0.425000
 1185  hoy     1 KAO      H1185            1185       0.425000
 1186  aoy     1 KAO     Al1186            1186       1.575000
 1187  aoy     1 KAO     Al1187            1187       1.575000
 1188  aoy     1 KAO     Al1188            1188       1.575000
 1189  aoy     1 KAO     Al1189            1189       1.575000
 1190  sty     1 KAO     Si1190            1190       2.100000
 1191  sty     1 KAO     Si1191            1191       2.100000
 1192  sty     1 KAO     Si1192            1192       2.100000
 1193  sty     1 KAO     Si1193            1193       2.100000
 1194  oby     1 KAO      O1194            1194      -1.050000
 1195  oby     1 KAO      O1195            1195      -1.050000
 1196  oby     1 KAO      O1196            1196      -1.050000
 1197  oby     1 KAO      O1197            1197      -1.050000
 1198  oby     1 KAO      O1198            1198      -1.050000
 1199  oby     1 KAO      O1199            1199      -1.050000
 1200  oby     1 KAO      O1200            1200      -1.050000
 1201  oby     1 KAO      O1201            1201      -1.050000
 1202  oby     1 KAO      O1202            1202      -1.050000
 1203  oby     1 KAO      O1203            1203      -1.050000
 1204  ohy     1 KAO      O1204            1204      -0.950000
 1205  ohy     1 KAO      O1205            1205      -0.950000
 1206  ohy     1 KAO      O1206            1206      -0.950000
 1207  ohy     1 KAO      O1207            1207      -0.950000
 1208  ohy     1 KAO      O1208            1208      -0.950000
 1209  ohy     1 KAO      O1209            1209      -0.950000
 1210  ohy     1 KAO      O1210            1210      -0.950000
 1211  ohy     1 KAO      O1211            1211      -0.950000
 1212  hoy     1 KAO      H1212            1212       0.425000
 1213  hoy     1 KAO      H1213            1213       0.425000
 1214  hoy     1 KAO      H1214            1214       0.425000
 1215  hoy     1 KAO      H1215            1215       0.425000
 1216  hoy     1 KAO      H1216            1216       0.425000
 1217  hoy     1 KAO      H1217            1217       0.425000
 1218  hoy     1 KAO      H1218            1218       0.425000
 1219  aoy     1 KAO     Al1219            1219       1.575000
 1220  aoy     1 KAO     Al1220            1220       1.575000
 1221  aoy     1 KAO     Al1221            1221       1.575000
 1222  aoy     1 KAO     Al1222            1222       1.575000
 1223  sty     1 KAO     Si1223            1223       2.100000
 1224  sty     1 KAO     Si1224            1224       2.100000
 1225  sty     1 KAO     Si1225            1225       2.100000
 1226  sty     1 KAO     Si1226            1226       2.100000
 1227  oby     1 KAO      O1227            1227      -1.050000
 1228  oby     1 KAO      O1228            1228      -1.050000
 1229  oby     1 KAO      O1229            1229      -1.050000
 1230  oby     1 KAO      O1230            1230      -1.050000
 1231  oby     1 KAO      O1231            1231      -1.050000
 1232  oby     1 KAO      O1232            1232      -1.050000
 1233  oby     1 KAO      O1233            1233      -1.050000
 1234  oby     1 KAO      O1234            1234      -1.050000
 1235  oby     1 KAO      O1235            1235      -1.050000
 1236  oby     1 KAO      O1236            1236      -1.050000
 1237  ohy     1 KAO      O1237            1237      -0.950000
 1238  ohy     1 KAO      O1238            1238      -0.950000
 1239  ohy     1 KAO      O1239            1239      -0.950000
 1240  ohy     1 KAO      O1240            1240      -0.950000
 1241  ohy     1 KAO      O1241            1241      -0.950000
 1242  ohy     1 KAO      O1242            1242      -0.950000
 1243  ohy     1 KAO      O1243            1243      -0.950000
 1244  ohy     1 KAO      O1244            1244      -0.950000
 1245  hoy     1 KAO      H1245            1245       0.425000
 1246  hoy     1 KAO      H1246            1246       0.425000
 1247  hoy     1 KAO      H1247            1247       0.425000
 1248  hoy     1 KAO      H1248            1248       0.425000
 1249  hoy     1 KAO      H1249            1249       0.425000
 1250  hoy     1 KAO      H1250            1250       0.425000
 1251  hoy     1 KAO      H1251            1251       0.425000
 1252  aoy     1 KAO     Al1252            1252       1.575000
 1253  aoy     1 KAO     Al1253            1253       1.575000
 1254  aoy     1 KAO     Al1254            1254       1.575000
 1255  aoy     1 KAO     Al1255            1255       1.575000
 1256  sty     1 KAO     Si1256            1256       2.100000
 1257  sty     1 KAO     Si1257            1257       2.100000
 1258  sty     1 KAO     Si1258            1258       2.100000
 1259  sty     1 KAO     Si1259            1259       2.100000
 1260  oby     1 KAO      O1260            1260      -1.050000
 1261  oby     1 KAO      O1261            1261      -1.050000
 1262  oby     1 KAO      O1262            1262      -1.050000
 1263  oby     1 KAO      O1263            1263      -1.050000
 1264  oby     1 KAO      O1264            1264      -1.050000
 1265  oby     1 KAO      O1265            1265      -1.050000
 1266  oby     1 KAO      O1266            1266      -1.050000
 1267  oby     1 KAO      O1267            1267      -1.050000
 1268  oby     1 KAO      O1268            1268      -1.050000
 1269  oby     1 KAO      O1269            1269      -1.050000
 1270  ohy     1 KAO      O1270            1270      -0.950000
 1271  ohy     1 KAO      O1271            1271      -0.950000
 1272  ohy     1 KAO      O1272            1272      -0.950000
 1273  ohy     1 KAO      O1273            1273      -0.950000
 1274  ohy     1 KAO      O1274            1274      -0.950000
 1275  ohy     1 KAO      O1275            1275      -0.950000
 1276  ohy     1 KAO      O1276            1276      -0.950000
 1277  ohy     1 KAO      O1277            1277      -0.950000
 1278  hoy     1 KAO      H1278            1278       0.425000
 1279  hoy     1 KAO      H1279            1279       0.425000
 1280  hoy     1 KAO      H1280            1280       0.425000
 1281  hoy     1 KAO      H1281            1281       0.425000
 1282  hoy     1 KAO      H1282            1282       0.425000
 1283  hoy     1 KAO      H1283            1283       0.425000
 1284  hoy     1 KAO      H1284            1284       0.425000
 1285  aoy     1 KAO     Al1285            1285       1.575000
 1286  aoy     1 KAO     Al1286            1286       1.575000
 1287  aoy     1 KAO     Al1287            1287       1.575000
 1288  aoy     1 KAO     Al1288            1288       1.575000
 1289  sty     1 KAO     Si1289            1289       2.100000
 1290  sty     1 KAO     Si1290            1290       2.100000
 1291  sty     1 KAO     Si1291            1291       2.100000
 1292  sty     1 KAO     Si1292            1292       2.100000
 1293  oby     1 KAO      O1293            1293      -1.050000
 1294  oby     1 KAO      O1294            1294      -1.050000
 1295  oby     1 KAO      O1295            1295      -1.050000
 1296  oby     1 KAO      O1296            1296      -1.050000
 1297  oby     1 KAO      O1297            1297      -1.050000
 1298  oby     1 KAO      O1298            1298      -1.050000
 1299  oby     1 KAO      O1299            1299      -1.050000
 1300  oby     1 KAO      O1300            1300      -1.050000
 1301  oby     1 KAO      O1301            1301      -1.050000
 1302  oby     1 KAO      O1302            1302      -1.050000
 1303  ohy     1 KAO      O1303            1303      -0.950000
 1304  ohy     1 KAO      O1304            1304      -0.950000
 1305  ohy     1 KAO      O1305            1305      -0.950000
 1306  ohy     1 KAO      O1306            1306      -0.950000
 1307  ohy     1 KAO      O1307            1307      -0.950000
 1308  ohy     1 KAO      O1308            1308      -0.950000
 1309  ohy     1 KAO      O1309            1309      -0.950000
 1310  ohy     1 KAO      O1310            1310      -0.950000
 1311  hoy     1 KAO      H1311            1311       0.425000
 1312  hoy     1 KAO      H1312            1312       0.425000
 1313  hoy     1 KAO      H1313            1313       0.425000
 1314  hoy     1 KAO      H1314            1314       0.425000
 1315  hoy     1 KAO      H1315            1315       0.425000
 1316  hoy     1 KAO      H1316            1316       0.425000
 1317  hoy     1 KAO      H1317            1317       0.425000
 1318  aoy     1 KAO     Al1318            1318       1.575000
 1319  aoy     1 KAO     Al1319            1319       1.575000
 1320  aoy     1 KAO     Al1320            1320       1.575000
 1321  aoy     1 KAO     Al1321            1321       1.575000
 1322  sty     1 KAO     Si1322            1322       2.100000
 1323  sty     1 KAO     Si1323            1323       2.100000
 1324  sty     1 KAO     Si1324            1324       2.100000
 1325  sty     1 KAO     Si1325            1325       2.100000
 1326  oby     1 KAO      O1326            1326      -1.050000
 1327  oby     1 KAO      O1327            1327      -1.050000
 1328  oby     1 KAO      O1328            1328      -1.050000
 1329  oby     1 KAO      O1329            1329      -1.050000
 1330  oby     1 KAO      O1330            1330      -1.050000
 1331  oby     1 KAO      O1331            1331      -1.050000
 1332  oby     1 KAO      O1332            1332      -1.050000
 1333  oby     1 KAO      O1333            1333      -1.050000
 1334  oby     1 KAO      O1334            1334      -1.050000
 1335  oby     1 KAO      O1335            1335      -1.050000
 1336  ohy     1 KAO      O1336            1336      -0.950000
 1337  ohy     1 KAO      O1337            1337      -0.950000
 1338  ohy     1 KAO      O1338            1338      -0.950000
 1339  ohy     1 KAO      O1339            1339      -0.950000
 1340  ohy     1 KAO      O1340            1340      -0.950000
 1341  ohy     1 KAO      O1341            1341      -0.950000
 1342  ohy     1 KAO      O1342            1342      -0.950000
 1343  ohy     1 KAO      O1343            1343      -0.950000
 1344  hoy     1 KAO      H1344            1344       0.425000
 1345  hoy     1 KAO      H1345            1345       0.425000
 1346  hoy     1 KAO      H1346            1346       0.425000
 1347  hoy     1 KAO      H1347            1347       0.425000
 1348  hoy     1 KAO      H1348            1348       0.425000
 1349  hoy     1 KAO      H1349            1349       0.425000
 1350  hoy     1 KAO      H1350            1350       0.425000
 1351  aoy     1 KAO     Al1351            1351       1.575000
 1352  aoy     1 KAO     Al1352            1352       1.575000
 1353  aoy     1 KAO     Al1353            1353       1.575000
 1354  aoy     1 KAO     Al1354            1354       1.575000
 1355  sty     1 KAO     Si1355            1355       2.100000
 1356  sty     1 KAO     Si1356            1356       2.100000
 1357  sty     1 KAO     Si1357            1357       2.100000
 1358  sty     1 KAO     Si1358            1358       2.100000
 1359  oby     1 KAO      O1359            1359      -1.050000
 1360  oby     1 KAO      O1360            1360      -1.050000
 1361  oby     1 KAO      O1361            1361      -1.050000
 1362  oby     1 KAO      O1362            1362      -1.050000
 1363  oby     1 KAO      O1363            1363      -1.050000
 1364  oby     1 KAO      O1364            1364      -1.050000
 1365  oby     1 KAO      O1365            1365      -1.050000
 1366  oby     1 KAO      O1366            1366      -1.050000
 1367  oby     1 KAO      O1367            1367      -1.050000
 1368  oby     1 KAO      O1368            1368      -1.050000
 1369  ohy     1 KAO      O1369            1369      -0.950000
 1370  ohy     1 KAO      O1370            1370      -0.950000
 1371  ohy     1 KAO      O1371            1371      -0.950000
 1372  ohy     1 KAO      O1372            1372      -0.950000
 1373  ohy     1 KAO      O1373            1373      -0.950000
 1374  ohy     1 KAO      O1374            1374      -0.950000
 1375  ohy     1 KAO      O1375            1375      -0.950000
 1376  ohy     1 KAO      O1376            1376      -0.950000
 1377  hoy     1 KAO      H1377            1377       0.425000
 1378  hoy     1 KAO      H1378            1378       0.425000
 1379  hoy     1 KAO      H1379            1379       0.425000
 1380  hoy     1 KAO      H1380            1380       0.425000
 1381  hoy     1 KAO      H1381            1381       0.425000
 1382  hoy     1 KAO      H1382            1382       0.425000
 1383  hoy     1 KAO      H1383            1383       0.425000
 1384  aoy     1 KAO     Al1384            1384       1.575000
 1385  aoy     1 KAO     Al1385            1385       1.575000
 1386  aoy     1 KAO     Al1386            1386       1.575000
 1387  aoy     1 KAO     Al1387            1387       1.575000
 1388  sty     1 KAO     Si1388            1388       2.100000
 1389  sty     1 KAO     Si1389            1389       2.100000
 1390  sty     1 KAO     Si1390            1390       2.100000
 1391  sty     1 KAO     Si1391            1391       2.100000
 1392  oby     1 KAO      O1392            1392      -1.050000
 1393  oby     1 KAO      O1393            1393      -1.050000
 1394  oby     1 KAO      O1394            1394      -1.050000
 1395  oby     1 KAO      O1395            1395      -1.050000
 1396  oby     1 KAO      O1396            1396      -1.050000
 1397  oby     1 KAO      O1397            1397      -1.050000
 1398  oby     1 KAO      O1398            1398      -1.050000
 1399  oby     1 KAO      O1399            1399      -1.050000
 1400  oby     1 KAO      O1400            1400      -1.050000
 1401  oby     1 KAO      O1401            1401      -1.050000
 1402  ohy     1 KAO      O1402            1402      -0.950000
 1403  ohy     1 KAO      O1403            1403      -0.950000
 1404  ohy     1 KAO      O1404            1404      -0.950000
 1405  ohy     1 KAO      O1405            1405      -0.950000
 1406  ohy     1 KAO      O1406            1406      -0.950000
 1407  ohy     1 KAO      O1407            1407      -0.950000
 1408  ohy     1 KAO      O1408            1408      -0.950000
 1409  ohy     1 KAO      O1409            1409      -0.950000
 1410  hoy     1 KAO      H1410            1410       0.425000
 1411  hoy     1 KAO      H1411            1411       0.425000
 1412  hoy     1 KAO      H1412            1412       0.425000
 1413  hoy     1 KAO      H1413            1413       0.425000
 1414  hoy     1 KAO      H1414            1414       0.425000
 1415  hoy     1 KAO      H1415            1415       0.425000
 1416  hoy     1 KAO      H1416            1416       0.425000
 1417  aoy     1 KAO     Al1417            1417       1.575000
 1418  aoy     1 KAO     Al1418            1418       1.575000
 1419  aoy     1 KAO     Al1419            1419       1.575000
 1420  aoy     1 KAO     Al1420            1420       1.575000
 1421  sty     1 KAO     Si1421            1421       2.100000
 1422  sty     1 KAO     Si1422            1422       2.100000
 1423  sty     1 KAO     Si1423            1423       2.100000
 1424  sty     1 KAO     Si1424            1424       2.100000
 1425  oby     1 KAO      O1425            1425      -1.050000
 1426  oby     1 KAO      O1426            1426      -1.050000
 1427  oby     1 KAO      O1427            1427      -1.050000
 1428  oby     1 KAO      O1428            1428      -1.050000
 1429  oby     1 KAO      O1429            1429      -1.050000
 1430  oby     1 KAO      O1430            1430      -1.050000
 1431  oby     1 KAO      O1431            1431      -1.050000
 1432  oby     1 KAO      O1432            1432      -1.050000
 1433  oby     1 KAO      O1433            1433      -1.050000
 1434  oby     1 KAO      O1434            1434      -1.050000
 1435  ohy     1 KAO      O1435            1435      -0.950000
 1436  ohy     1 KAO      O1436            1436      -0.950000
 1437  ohy     1 KAO      O1437            1437      -0.950000
 1438  ohy     1 KAO      O1438            1438      -0.950000
 1439  ohy     1 KAO      O1439            1439      -0.950000
 1440  ohy     1 KAO      O1440            1440      -0.950000
 1441  ohy     1 KAO      O1441            1441      -0.950000
 1442  ohy     1 KAO      O1442            1442      -0.950000
 1443  hoy     1 KAO      H1443            1443       0.425000
 1444  hoy     1 KAO      H1444            1444       0.425000
 1445  hoy     1 KAO      H1445            1445       0.425000
 1446  hoy     1 KAO      H1446            1446       0.425000
 1447  hoy     1 KAO      H1447            1447       0.425000
 1448  hoy     1 KAO      H1448            1448       0.425000
 1449  hoy     1 KAO      H1449            1449       0.425000
 1450  aoy     1 KAO     Al1450            1450       1.575000
 1451  aoy     1 KAO     Al1451            1451       1.575000
 1452  aoy     1 KAO     Al1452            1452       1.575000
 1453  aoy     1 KAO     Al1453            1453       1.575000
 1454  sty     1 KAO     Si1454            1454       2.100000
 1455  sty     1 KAO     Si1455            1455       2.100000
 1456  sty     1 KAO     Si1456            1456       2.100000
 1457  sty     1 KAO     Si1457            1457       2.100000
 1458  oby     1 KAO      O1458            1458      -1.050000
 1459  oby     1 KAO      O1459            1459      -1.050000
 1460  oby     1 KAO      O1460            1460      -1.050000
 1461  oby     1 KAO      O1461            1461      -1.050000
 1462  oby     1 KAO      O1462            1462      -1.050000
 1463  oby     1 KAO      O1463            1463      -1.050000
 1464  oby     1 KAO      O1464            1464      -1.050000
 1465  oby     1 KAO      O1465            1465      -1.050000
 1466  oby     1 KAO      O1466            1466      -1.050000
 1467  oby     1 KAO      O1467            1467      -1.050000
 1468  ohy     1 KAO      O1468            1468      -0.950000
 1469  ohy     1 KAO      O1469            1469      -0.950000
 1470  ohy     1 KAO      O1470            1470      -0.950000
 1471  ohy     1 KAO      O1471            1471      -0.950000
 1472  ohy     1 KAO      O1472            1472      -0.950000
 1473  ohy     1 KAO      O1473            1473      -0.950000
 1474  ohy     1 KAO      O1474            1474      -0.950000
 1475  ohy     1 KAO      O1475            1475      -0.950000
 1476  hoy     1 KAO      H1476            1476       0.425000
 1477  hoy     1 KAO      H1477            1477       0.425000
 1478  hoy     1 KAO      H1478            1478       0.425000
 1479  hoy     1 KAO      H1479            1479       0.425000
 1480  hoy     1 KAO      H1480            1480       0.425000
 1481  hoy     1 KAO      H1481            1481       0.425000
 1482  hoy     1 KAO      H1482            1482       0.425000
 1483  aoy     1 KAO     Al1483            1483       1.575000
 1484  aoy     1 KAO     Al1484            1484       1.575000
 1485  aoy     1 KAO     Al1485            1485       1.575000
 1486  aoy     1 KAO     Al1486            1486       1.575000
 1487  sty     1 KAO     Si1487            1487       2.100000
 1488  sty     1 KAO     Si1488            1488       2.100000
 1489  sty     1 KAO     Si1489            1489       2.100000
 1490  sty     1 KAO     Si1490            1490       2.100000
 1491  oby     1 KAO      O1491            1491      -1.050000
 1492  oby     1 KAO      O1492            1492      -1.050000
 1493  oby     1 KAO      O1493            1493      -1.050000
 1494  oby     1 KAO      O1494            1494      -1.050000
 1495  oby     1 KAO      O1495            1495      -1.050000
 1496  oby     1 KAO      O1496            1496      -1.050000
 1497  oby     1 KAO      O1497            1497      -1.050000
 1498  oby     1 KAO      O1498            1498      -1.050000
 1499  oby     1 KAO      O1499            1499      -1.050000
 1500  oby     1 KAO      O1500            1500      -1.050000
 1501  ohy     1 KAO      O1501            1501      -0.950000
 1502  ohy     1 KAO      O1502            1502      -0.950000
 1503  ohy     1 KAO      O1503            1503      -0.950000
 1504  ohy     1 KAO      O1504            1504      -0.950000
 1505  ohy     1 KAO      O1505            1505      -0.950000
 1506  ohy     1 KAO      O1506            1506      -0.950000
 1507  ohy     1 KAO      O1507            1507      -0.950000
 1508  hoy     1 KAO      H1508            1508       0.425000
 1509  hoy     1 KAO      H1509            1509       0.425000
 1510  hoy     1 KAO      H1510            1510       0.425000
 1511  hoy     1 KAO      H1511            1511       0.425000
 1512  hoy     1 KAO      H1512            1512       0.425000
 1513  hoy     1 KAO      H1513            1513       0.425000
 1514  aoy     1 KAO     Al1514            1514       1.575000
 1515  aoy     1 KAO     Al1515            1515       1.575000
 1516  aoy     1 KAO     Al1516            1516       1.575000
 1517  aoy     1 KAO     Al1517            1517       1.575000
 1518  sty     1 KAO     Si1518            1518       2.100000
 1519  sty     1 KAO     Si1519            1519       2.100000
 1520  sty     1 KAO     Si1520            1520       2.100000
 1521  sty     1 KAO     Si1521            1521       2.100000
 1522  oby     1 KAO      O1522            1522      -1.050000
 1523  oby     1 KAO      O1523            1523      -1.050000
 1524  oby     1 KAO      O1524            1524      -1.050000
 1525  oby     1 KAO      O1525            1525      -1.050000
 1526  oby     1 KAO      O1526            1526      -1.050000
 1527  oby     1 KAO      O1527            1527      -1.050000
 1528  oby     1 KAO      O1528            1528      -1.050000
 1529  oby     1 KAO      O1529            1529      -1.050000
 1530  oby     1 KAO      O1530            1530      -1.050000
 1531  oby     1 KAO      O1531            1531      -1.050000
 1532  ohy     1 KAO      O1532            1532      -0.950000
 1533  ohy     1 KAO      O1533            1533      -0.950000
 1534  ohy     1 KAO      O1534            1534      -0.950000
 1535  ohy     1 KAO      O1535            1535      -0.950000
 1536  ohy     1 KAO      O1536            1536      -0.950000
 1537  ohy     1 KAO      O1537            1537      -0.950000
 1538  ohy     1 KAO      O1538            1538      -0.950000
 1539  hoy     1 KAO      H1539            1539       0.425000
 1540  hoy     1 KAO      H1540            1540       0.425000
 1541  hoy     1 KAO      H1541            1541       0.425000
 1542  hoy     1 KAO      H1542            1542       0.425000
 1543  hoy     1 KAO      H1543            1543       0.425000
 1544  hoy     1 KAO      H1544            1544       0.425000
 1545  aoy     1 KAO     Al1545            1545       1.575000
 1546  aoy     1 KAO     Al1546            1546       1.575000
 1547  aoy     1 KAO     Al1547            1547       1.575000
 1548  aoy     1 KAO     Al1548            1548       1.575000
 1549  sty     1 KAO     Si1549            1549       2.100000
 1550  sty     1 KAO     Si1550            1550       2.100000
 1551  sty     1 KAO     Si1551            1551       2.100000
 1552  sty     1 KAO     Si1552            1552       2.100000
 1553  oby     1 KAO      O1553            1553      -1.050000
 1554  oby     1 KAO      O1554            1554      -1.050000
 1555  oby     1 KAO      O1555            1555      -1.050000
 1556  oby     1 KAO      O1556            1556      -1.050000
 1557  oby     1 KAO      O1557            1557      -1.050000
 1558  oby     1 KAO      O1558            1558      -1.050000
 1559  oby     1 KAO      O1559            1559      -1.050000
 1560  oby     1 KAO      O1560            1560      -1.050000
 1561  oby     1 KAO      O1561            1561      -1.050000
 1562  oby     1 KAO      O1562            1562      -1.050000
 1563  ohy     1 KAO      O1563            1563      -0.950000
 1564  ohy     1 KAO      O1564            1564      -0.950000
 1565  ohy     1 KAO      O1565            1565      -0.950000
 1566  ohy     1 KAO      O1566            1566      -0.950000
 1567  ohy     1 KAO      O1567            1567      -0.950000
 1568  ohy     1 KAO      O1568            1568      -0.950000
 1569  ohy     1 KAO      O1569            1569      -0.950000
 1570  hoy     1 KAO      H1570            1570       0.425000
 1571  hoy     1 KAO      H1571            1571       0.425000
 1572  hoy     1 KAO      H1572            1572       0.425000
 1573  hoy     1 KAO      H1573            1573       0.425000
 1574  hoy     1 KAO      H1574            1574       0.425000
 1575  hoy     1 KAO      H1575            1575       0.425000
 1576  aoy     1 KAO     Al1576            1576       1.575000
 1577  aoy     1 KAO     Al1577            1577       1.575000
 1578  aoy     1 KAO     Al1578            1578       1.575000
 1579  aoy     1 KAO     Al1579            1579       1.575000
 1580  sty     1 KAO     Si1580            1580       2.100000
 1581  sty     1 KAO     Si1581            1581       2.100000
 1582  sty     1 KAO     Si1582            1582       2.100000
 1583  sty     1 KAO     Si1583            1583       2.100000
 1584  oby     1 KAO      O1584            1584      -1.050000
 1585  oby     1 KAO      O1585            1585      -1.050000
 1586  oby     1 KAO      O1586            1586      -1.050000
 1587  oby     1 KAO      O1587            1587      -1.050000
 1588  oby     1 KAO      O1588            1588      -1.050000
 1589  oby     1 KAO      O1589            1589      -1.050000
 1590  oby     1 KAO      O1590            1590      -1.050000
 1591  oby     1 KAO      O1591            1591      -1.050000
 1592  oby     1 KAO      O1592            1592      -1.050000
 1593  oby     1 KAO      O1593            1593      -1.050000
 1594  ohy     1 KAO      O1594            1594      -0.950000
 1595  ohy     1 KAO      O1595            1595      -0.950000
 1596  ohy     1 KAO      O1596            1596      -0.950000
 1597  ohy     1 KAO      O1597            1597      -0.950000
 1598  ohy     1 KAO      O1598            1598      -0.950000
 1599  ohy     1 KAO      O1599            1599      -0.950000
 1600  ohy     1 KAO      O1600            1600      -0.950000
 1601  hoy     1 KAO      H1601            1601       0.425000
 1602  hoy     1 KAO      H1602            1602       0.425000
 1603  hoy     1 KAO      H1603            1603       0.425000
 1604  hoy     1 KAO      H1604            1604       0.425000
 1605  hoy     1 KAO      H1605            1605       0.425000
 1606  hoy     1 KAO      H1606            1606       0.425000
 1607  ohy     1 KAO      O1607            1607      -0.950000
 1608  hoy     1 KAO      H1608            1608       0.425000
 1609  ohy     1 KAO      O1609            1609      -0.950000
 1610  hoy     1 KAO      H1610            1610       0.425000
 1611  oby     1 KAO      O1611            1611      -1.050000
 1612  oby     1 KAO      O1612            1612      -1.050000
 1613  oby     1 KAO      O1613            1613      -1.050000
 1614  oby     1 KAO      O1614            1614      -1.050000
 1615  oby     1 KAO      O1615            1615      -1.050000
 1616  oby     1 KAO      O1616            1616      -1.050000
 1617  oby     1 KAO      O1617            1617      -1.050000
 1618  oby     1 KAO      O1618            1618      -1.050000
 1619  oby     1 KAO      O1619            1619      -1.050000
 1620  oby     1 KAO      O1620            1620      -1.050000
 1621  aoy     1 KAO     Al1621            1621       1.575000
 1622  aoy     1 KAO     Al1622            1622       1.575000
 1623  sty     1 KAO     Si1623            1623       2.100000
 1624  sty     1 KAO     Si1624            1624       2.100000
 1625  oby     1 KAO      O1625            1625      -1.050000
 1626  oby     1 KAO      O1626            1626      -1.050000
 1627  oby     1 KAO      O1627            1627      -1.050000
 1628  oby     1 KAO      O1628            1628      -1.050000
 1629  oby     1 KAO      O1629            1629      -1.050000
 1630  ohy     1 KAO      O1630            1630      -0.950000
 1631  ohy     1 KAO      O1631            1631      -0.950000
 1632  ohy     1 KAO      O1632            1632      -0.950000
 1633  ohy     1 KAO      O1633            1633      -0.950000
 1634  hoy     1 KAO      H1634            1634       0.425000
 1635  hoy     1 KAO      H1635            1635       0.425000
 1636  hoy     1 KAO      H1636            1636       0.425000
 1637  hoy     1 KAO      H1637            1637       0.425000
 1638  hoy     1 KAO      H1638            1638       0.425000
 1639  hoy     1 KAO      H1639            1639       0.425000
 1640  aoy     1 KAO     Al1640            1640       1.575000
 1641  aoy     1 KAO     Al1641            1641       1.575000
 1642  oby     1 KAO      O1642            1642      -1.050000
 1643  oby     1 KAO      O1643            1643      -1.050000
 1644  oby     1 KAO      O1644            1644      -1.050000
 1645  ohy     1 KAO      O1645            1645      -0.950000
 1646  hoy     1 KAO      H1646            1646       0.425000
 1647  hoy     1 KAO      H1647            1647       0.425000
 1648  hoy     1 KAO      H1648            1648       0.425000
 1649  hoy     1 KAO      H1649            1649       0.425000
 1650  sty     1 KAO     Si1650            1650       2.100000
 1651  sty     1 KAO     Si1651            1651       2.100000
 1652  oby     1 KAO      O1652            1652      -1.050000
 1653  oby     1 KAO      O1653            1653      -1.050000
 1654  ohy     1 KAO      O1654            1654      -0.950000
 1655  ohy     1 KAO      O1655            1655      -0.950000
 1656  ohy     1 KAO      O1656            1656      -0.950000
 1657  hoy     1 KAO      H1657            1657       0.425000
 1658  hoy     1 KAO      H1658            1658       0.425000
 1659  aoy     1 KAO     Al1659            1659       1.575000
 1660  aoy     1 KAO     Al1660            1660       1.575000
 1661  sty     1 KAO     Si1661            1661       2.100000
 1662  sty     1 KAO     Si1662            1662       2.100000
 1663  oby     1 KAO      O1663            1663      -1.050000
 1664  oby     1 KAO      O1664            1664      -1.050000
 1665  oby     1 KAO      O1665            1665      -1.050000
 1666  oby     1 KAO      O1666            1666      -1.050000
 1667  oby     1 KAO      O1667            1667      -1.050000
 1668  ohy     1 KAO      O1668            1668      -0.950000
 1669  ohy     1 KAO      O1669            1669      -0.950000
 1670  ohy     1 KAO      O1670            1670      -0.950000
 1671  ohy     1 KAO      O1671            1671      -0.950000
 1672  hoy     1 KAO      H1672            1672       0.425000
 1673  hoy     1 KAO      H1673            1673       0.425000
 1674  aoy     1 KAO     Al1674            1674       1.575000
 1675  aoy     1 KAO     Al1675            1675       1.575000
 1676  sty     1 KAO     Si1676            1676       2.100000
 1677  sty     1 KAO     Si1677            1677       2.100000
 1678  oby     1 KAO      O1678            1678      -1.050000
 1679  oby     1 KAO      O1679            1679      -1.050000
 1680  oby     1 KAO      O1680            1680      -1.050000
 1681  oby     1 KAO      O1681            1681      -1.050000
 1682  oby     1 KAO      O1682            1682      -1.050000
 1683  ohy     1 KAO      O1683            1683      -0.950000
 1684  ohy     1 KAO      O1684            1684      -0.950000
 1685  ohy     1 KAO      O1685            1685      -0.950000
 1686  ohy     1 KAO      O1686            1686      -0.950000
 1687  hoy     1 KAO      H1687            1687       0.425000
 1688  hoy     1 KAO      H1688            1688       0.425000
 1689  ohy     1 KAO      O1689            1689      -0.950000
 1690  ohy     1 KAO      O1690            1690      -0.950000
 1691  hoy     1 KAO      H1691            1691       0.425000
 1692  hoy     1 KAO      H1692            1692       0.425000
 1693  ohy     1 KAO      O1693            1693      -0.950000
 1694  ohy     1 KAO      O1694            1694      -0.950000
 1695  hoy     1 KAO      H1695            1695       0.425000
 1696  hoy     1 KAO      H1696            1696       0.425000
 1697  aoy     1 KAO     Al1697            1697       1.575000
 1698  aoy     1 KAO     Al1698            1698       1.575000
 1699  aoy     1 KAO     Al1699            1699       1.575000
 1700  aoy     1 KAO     Al1700            1700       1.575000
 1701  sty     1 KAO     Si1701            1701       2.100000
 1702  sty     1 KAO     Si1702            1702       2.100000
 1703  sty     1 KAO     Si1703            1703       2.100000
 1704  sty     1 KAO     Si1704            1704       2.100000
 1705  oby     1 KAO      O1705            1705      -1.050000
 1706  oby     1 KAO      O1706            1706      -1.050000
 1707  oby     1 KAO      O1707            1707      -1.050000
 1708  oby     1 KAO      O1708            1708      -1.050000
 1709  oby     1 KAO      O1709            1709      -1.050000
 1710  oby     1 KAO      O1710            1710      -1.050000
 1711  oby     1 KAO      O1711            1711      -1.050000
 1712  oby     1 KAO      O1712            1712      -1.050000
 1713  oby     1 KAO      O1713            1713      -1.050000
 1714  oby     1 KAO      O1714            1714      -1.050000
 1715  ohy     1 KAO      O1715            1715      -0.950000
 1716  ohy     1 KAO      O1716            1716      -0.950000
 1717  ohy     1 KAO      O1717            1717      -0.950000
 1718  ohy     1 KAO      O1718            1718      -0.950000
 1719  ohy     1 KAO      O1719            1719      -0.950000
 1720  ohy     1 KAO      O1720            1720      -0.950000
 1721  ohy     1 KAO      O1721            1721      -0.950000
 1722  ohy     1 KAO      O1722            1722      -0.950000
 1723  hoy     1 KAO      H1723            1723       0.425000
 1724  hoy     1 KAO      H1724            1724       0.425000
 1725  hoy     1 KAO      H1725            1725       0.425000
 1726  hoy     1 KAO      H1726            1726       0.425000
 1727  hoy     1 KAO      H1727            1727       0.425000
 1728  hoy     1 KAO      H1728            1728       0.425000
 1729  hoy     1 KAO      H1729            1729       0.425000
 1730  hoy     1 KAO      H1730            1730       0.425000
 1731  aoy     1 KAO     Al1731            1731       1.575000
 1732  aoy     1 KAO     Al1732            1732       1.575000
 1733  aoy     1 KAO     Al1733            1733       1.575000
 1734  aoy     1 KAO     Al1734            1734       1.575000
 1735  sty     1 KAO     Si1735            1735       2.100000
 1736  sty     1 KAO     Si1736            1736       2.100000
 1737  sty     1 KAO     Si1737            1737       2.100000
 1738  sty     1 KAO     Si1738            1738       2.100000
 1739  oby     1 KAO      O1739            1739      -1.050000
 1740  oby     1 KAO      O1740            1740      -1.050000
 1741  oby     1 KAO      O1741            1741      -1.050000
 1742  oby     1 KAO      O1742            1742      -1.050000
 1743  oby     1 KAO      O1743            1743      -1.050000
 1744  oby     1 KAO      O1744            1744      -1.050000
 1745  oby     1 KAO      O1745            1745      -1.050000
 1746  oby     1 KAO      O1746            1746      -1.050000
 1747  oby     1 KAO      O1747            1747      -1.050000
 1748  oby     1 KAO      O1748            1748      -1.050000
 1749  ohy     1 KAO      O1749            1749      -0.950000
 1750  ohy     1 KAO      O1750            1750      -0.950000
 1751  ohy     1 KAO      O1751            1751      -0.950000
 1752  ohy     1 KAO      O1752            1752      -0.950000
 1753  ohy     1 KAO      O1753            1753      -0.950000
 1754  ohy     1 KAO      O1754            1754      -0.950000
 1755  ohy     1 KAO      O1755            1755      -0.950000
 1756  ohy     1 KAO      O1756            1756      -0.950000
 1757  hoy     1 KAO      H1757            1757       0.425000
 1758  hoy     1 KAO      H1758            1758       0.425000
 1759  hoy     1 KAO      H1759            1759       0.425000
 1760  hoy     1 KAO      H1760            1760       0.425000
 1761  hoy     1 KAO      H1761            1761       0.425000
 1762  hoy     1 KAO      H1762            1762       0.425000
 1763  hoy     1 KAO      H1763            1763       0.425000
 1764  hoy     1 KAO      H1764            1764       0.425000
 1765  aoy     1 KAO     Al1765            1765       1.575000
 1766  aoy     1 KAO     Al1766            1766       1.575000
 1767  aoy     1 KAO     Al1767            1767       1.575000
 1768  aoy     1 KAO     Al1768            1768       1.575000
 1769  sty     1 KAO     Si1769            1769       2.100000
 1770  sty     1 KAO     Si1770            1770       2.100000
 1771  sty     1 KAO     Si1771            1771       2.100000
 1772  sty     1 KAO     Si1772            1772       2.100000
 1773  oby     1 KAO      O1773            1773      -1.050000
 1774  oby     1 KAO      O1774            1774      -1.050000
 1775  oby     1 KAO      O1775            1775      -1.050000
 1776  oby     1 KAO      O1776            1776      -1.050000
 1777  oby     1 KAO      O1777            1777      -1.050000
 1778  oby     1 KAO      O1778            1778      -1.050000
 1779  oby     1 KAO      O1779            1779      -1.050000
 1780  oby     1 KAO      O1780            1780      -1.050000
 1781  oby     1 KAO      O1781            1781      -1.050000
 1782  oby     1 KAO      O1782            1782      -1.050000
 1783  ohy     1 KAO      O1783            1783      -0.950000
 1784  ohy     1 KAO      O1784            1784      -0.950000
 1785  ohy     1 KAO      O1785            1785      -0.950000
 1786  ohy     1 KAO      O1786            1786      -0.950000
 1787  ohy     1 KAO      O1787            1787      -0.950000
 1788  ohy     1 KAO      O1788            1788      -0.950000
 1789  ohy     1 KAO      O1789            1789      -0.950000
 1790  ohy     1 KAO      O1790            1790      -0.950000
 1791  hoy     1 KAO      H1791            1791       0.425000
 1792  hoy     1 KAO      H1792            1792       0.425000
 1793  hoy     1 KAO      H1793            1793       0.425000
 1794  hoy     1 KAO      H1794            1794       0.425000
 1795  hoy     1 KAO      H1795            1795       0.425000
 1796  hoy     1 KAO      H1796            1796       0.425000
 1797  hoy     1 KAO      H1797            1797       0.425000
 1798  hoy     1 KAO      H1798            1798       0.425000
 1799  aoy     1 KAO     Al1799            1799       1.575000
 1800  aoy     1 KAO     Al1800            1800       1.575000
 1801  aoy     1 KAO     Al1801            1801       1.575000
 1802  aoy     1 KAO     Al1802            1802       1.575000
 1803  sty     1 KAO     Si1803            1803       2.100000
 1804  sty     1 KAO     Si1804            1804       2.100000
 1805  sty     1 KAO     Si1805            1805       2.100000
 1806  sty     1 KAO     Si1806            1806       2.100000
 1807  oby     1 KAO      O1807            1807      -1.050000
 1808  oby     1 KAO      O1808            1808      -1.050000
 1809  oby     1 KAO      O1809            1809      -1.050000
 1810  oby     1 KAO      O1810            1810      -1.050000
 1811  oby     1 KAO      O1811            1811      -1.050000
 1812  oby     1 KAO      O1812            1812      -1.050000
 1813  oby     1 KAO      O1813            1813      -1.050000
 1814  oby     1 KAO      O1814            1814      -1.050000
 1815  oby     1 KAO      O1815            1815      -1.050000
 1816  oby     1 KAO      O1816            1816      -1.050000
 1817  ohy     1 KAO      O1817            1817      -0.950000
 1818  ohy     1 KAO      O1818            1818      -0.950000
 1819  ohy     1 KAO      O1819            1819      -0.950000
 1820  ohy     1 KAO      O1820            1820      -0.950000
 1821  ohy     1 KAO      O1821            1821      -0.950000
 1822  ohy     1 KAO      O1822            1822      -0.950000
 1823  ohy     1 KAO      O1823            1823      -0.950000
 1824  ohy     1 KAO      O1824            1824      -0.950000
 1825  hoy     1 KAO      H1825            1825       0.425000
 1826  hoy     1 KAO      H1826            1826       0.425000
 1827  hoy     1 KAO      H1827            1827       0.425000
 1828  hoy     1 KAO      H1828            1828       0.425000
 1829  hoy     1 KAO      H1829            1829       0.425000
 1830  hoy     1 KAO      H1830            1830       0.425000
 1831  hoy     1 KAO      H1831            1831       0.425000
 1832  hoy     1 KAO      H1832            1832       0.425000
 1833  aoy     1 KAO     Al1833            1833       1.575000
 1834  aoy     1 KAO     Al1834            1834       1.575000
 1835  aoy     1 KAO     Al1835            1835       1.575000
 1836  aoy     1 KAO     Al1836            1836       1.575000
 1837  sty     1 KAO     Si1837            1837       2.100000
 1838  sty     1 KAO     Si1838            1838       2.100000
 1839  sty     1 KAO     Si1839            1839       2.100000
 1840  sty     1 KAO     Si1840            1840       2.100000
 1841  oby     1 KAO      O1841            1841      -1.050000
 1842  oby     1 KAO      O1842            1842      -1.050000
 1843  oby     1 KAO      O1843            1843      -1.050000
 1844  oby     1 KAO      O1844            1844      -1.050000
 1845  oby     1 KAO      O1845            1845      -1.050000
 1846  oby     1 KAO      O1846            1846      -1.050000
 1847  oby     1 KAO      O1847            1847      -1.050000
 1848  oby     1 KAO      O1848            1848      -1.050000
 1849  oby     1 KAO      O1849            1849      -1.050000
 1850  oby     1 KAO      O1850            1850      -1.050000
 1851  ohy     1 KAO      O1851            1851      -0.950000
 1852  ohy     1 KAO      O1852            1852      -0.950000
 1853  ohy     1 KAO      O1853            1853      -0.950000
 1854  ohy     1 KAO      O1854            1854      -0.950000
 1855  ohy     1 KAO      O1855            1855      -0.950000
 1856  ohy     1 KAO      O1856            1856      -0.950000
 1857  ohy     1 KAO      O1857            1857      -0.950000
 1858  ohy     1 KAO      O1858            1858      -0.950000
 1859  hoy     1 KAO      H1859            1859       0.425000
 1860  hoy     1 KAO      H1860            1860       0.425000
 1861  hoy     1 KAO      H1861            1861       0.425000
 1862  hoy     1 KAO      H1862            1862       0.425000
 1863  hoy     1 KAO      H1863            1863       0.425000
 1864  hoy     1 KAO      H1864            1864       0.425000
 1865  hoy     1 KAO      H1865            1865       0.425000
 1866  hoy     1 KAO      H1866            1866       0.425000
 1867  aoy     1 KAO     Al1867            1867       1.575000
 1868  aoy     1 KAO     Al1868            1868       1.575000
 1869  aoy     1 KAO     Al1869            1869       1.575000
 1870  aoy     1 KAO     Al1870            1870       1.575000
 1871  sty     1 KAO     Si1871            1871       2.100000
 1872  sty     1 KAO     Si1872            1872       2.100000
 1873  sty     1 KAO     Si1873            1873       2.100000
 1874  sty     1 KAO     Si1874            1874       2.100000
 1875  oby     1 KAO      O1875            1875      -1.050000
 1876  oby     1 KAO      O1876            1876      -1.050000
 1877  oby     1 KAO      O1877            1877      -1.050000
 1878  oby     1 KAO      O1878            1878      -1.050000
 1879  oby     1 KAO      O1879            1879      -1.050000
 1880  oby     1 KAO      O1880            1880      -1.050000
 1881  oby     1 KAO      O1881            1881      -1.050000
 1882  oby     1 KAO      O1882            1882      -1.050000
 1883  oby     1 KAO      O1883            1883      -1.050000
 1884  oby     1 KAO      O1884            1884      -1.050000
 1885  ohy     1 KAO      O1885            1885      -0.950000
 1886  ohy     1 KAO      O1886            1886      -0.950000
 1887  ohy     1 KAO      O1887            1887      -0.950000
 1888  ohy     1 KAO      O1888            1888      -0.950000
 1889  ohy     1 KAO      O1889            1889      -0.950000
 1890  ohy     1 KAO      O1890            1890      -0.950000
 1891  ohy     1 KAO      O1891            1891      -0.950000
 1892  ohy     1 KAO      O1892            1892      -0.950000
 1893  hoy     1 KAO      H1893            1893       0.425000
 1894  hoy     1 KAO      H1894            1894       0.425000
 1895  hoy     1 KAO      H1895            1895       0.425000
 1896  hoy     1 KAO      H1896            1896       0.425000
 1897  hoy     1 KAO      H1897            1897       0.425000
 1898  hoy     1 KAO      H1898            1898       0.425000
 1899  hoy     1 KAO      H1899            1899       0.425000
 1900  hoy     1 KAO      H1900            1900       0.425000
 1901  aoy     1 KAO     Al1901            1901       1.575000
 1902  aoy     1 KAO     Al1902            1902       1.575000
 1903  aoy     1 KAO     Al1903            1903       1.575000
 1904  aoy     1 KAO     Al1904            1904       1.575000
 1905  sty     1 KAO     Si1905            1905       2.100000
 1906  sty     1 KAO     Si1906            1906       2.100000
 1907  sty     1 KAO     Si1907            1907       2.100000
 1908  sty     1 KAO     Si1908            1908       2.100000
 1909  oby     1 KAO      O1909            1909      -1.050000
 1910  oby     1 KAO      O1910            1910      -1.050000
 1911  oby     1 KAO      O1911            1911      -1.050000
 1912  oby     1 KAO      O1912            1912      -1.050000
 1913  oby     1 KAO      O1913            1913      -1.050000
 1914  oby     1 KAO      O1914            1914      -1.050000
 1915  oby     1 KAO      O1915            1915      -1.050000
 1916  oby     1 KAO      O1916            1916      -1.050000
 1917  oby     1 KAO      O1917            1917      -1.050000
 1918  oby     1 KAO      O1918            1918      -1.050000
 1919  ohy     1 KAO      O1919            1919      -0.950000
 1920  ohy     1 KAO      O1920            1920      -0.950000
 1921  ohy     1 KAO      O1921            1921      -0.950000
 1922  ohy     1 KAO      O1922            1922      -0.950000
 1923  ohy     1 KAO      O1923            1923      -0.950000
 1924  ohy     1 KAO      O1924            1924      -0.950000
 1925  ohy     1 KAO      O1925            1925      -0.950000
 1926  ohy     1 KAO      O1926            1926      -0.950000
 1927  hoy     1 KAO      H1927            1927       0.425000
 1928  hoy     1 KAO      H1928            1928       0.425000
 1929  hoy     1 KAO      H1929            1929       0.425000
 1930  hoy     1 KAO      H1930            1930       0.425000
 1931  hoy     1 KAO      H1931            1931       0.425000
 1932  hoy     1 KAO      H1932            1932       0.425000
 1933  hoy     1 KAO      H1933            1933       0.425000
 1934  hoy     1 KAO      H1934            1934       0.425000
 1935  aoy     1 KAO     Al1935            1935       1.575000
 1936  aoy     1 KAO     Al1936            1936       1.575000
 1937  aoy     1 KAO     Al1937            1937       1.575000
 1938  aoy     1 KAO     Al1938            1938       1.575000
 1939  sty     1 KAO     Si1939            1939       2.100000
 1940  sty     1 KAO     Si1940            1940       2.100000
 1941  sty     1 KAO     Si1941            1941       2.100000
 1942  sty     1 KAO     Si1942            1942       2.100000
 1943  oby     1 KAO      O1943            1943      -1.050000
 1944  oby     1 KAO      O1944            1944      -1.050000
 1945  oby     1 KAO      O1945            1945      -1.050000
 1946  oby     1 KAO      O1946            1946      -1.050000
 1947  oby     1 KAO      O1947            1947      -1.050000
 1948  oby     1 KAO      O1948            1948      -1.050000
 1949  oby     1 KAO      O1949            1949      -1.050000
 1950  oby     1 KAO      O1950            1950      -1.050000
 1951  oby     1 KAO      O1951            1951      -1.050000
 1952  oby     1 KAO      O1952            1952      -1.050000
 1953  ohy     1 KAO      O1953            1953      -0.950000
 1954  ohy     1 KAO      O1954            1954      -0.950000
 1955  ohy     1 KAO      O1955            1955      -0.950000
 1956  ohy     1 KAO      O1956            1956      -0.950000
 1957  ohy     1 KAO      O1957            1957      -0.950000
 1958  ohy     1 KAO      O1958            1958      -0.950000
 1959  ohy     1 KAO      O1959            1959      -0.950000
 1960  ohy     1 KAO      O1960            1960      -0.950000
 1961  hoy     1 KAO      H1961            1961       0.425000
 1962  hoy     1 KAO      H1962            1962       0.425000
 1963  hoy     1 KAO      H1963            1963       0.425000
 1964  hoy     1 KAO      H1964            1964       0.425000
 1965  hoy     1 KAO      H1965            1965       0.425000
 1966  hoy     1 KAO      H1966            1966       0.425000
 1967  hoy     1 KAO      H1967            1967       0.425000
 1968  hoy     1 KAO      H1968            1968       0.425000
 1969  aoy     1 KAO     Al1969            1969       1.575000
 1970  aoy     1 KAO     Al1970            1970       1.575000
 1971  aoy     1 KAO     Al1971            1971       1.575000
 1972  aoy     1 KAO     Al1972            1972       1.575000
 1973  sty     1 KAO     Si1973            1973       2.100000
 1974  sty     1 KAO     Si1974            1974       2.100000
 1975  sty     1 KAO     Si1975            1975       2.100000
 1976  sty     1 KAO     Si1976            1976       2.100000
 1977  oby     1 KAO      O1977            1977      -1.050000
 1978  oby     1 KAO      O1978            1978      -1.050000
 1979  oby     1 KAO      O1979            1979      -1.050000
 1980  oby     1 KAO      O1980            1980      -1.050000
 1981  oby     1 KAO      O1981            1981      -1.050000
 1982  oby     1 KAO      O1982            1982      -1.050000
 1983  oby     1 KAO      O1983            1983      -1.050000
 1984  oby     1 KAO      O1984            1984      -1.050000
 1985  ohy     1 KAO      O1985            1985      -0.950000
 1986  ohy     1 KAO      O1986            1986      -0.950000
 1987  ohy     1 KAO      O1987            1987      -0.950000
 1988  ohy     1 KAO      O1988            1988      -0.950000
 1989  ohy     1 KAO      O1989            1989      -0.950000
 1990  ohy     1 KAO      O1990            1990      -0.950000
 1991  ohy     1 KAO      O1991            1991      -0.950000
 1992  hoy     1 KAO      H1992            1992       0.425000
 1993  hoy     1 KAO      H1993            1993       0.425000
 1994  hoy     1 KAO      H1994            1994       0.425000
 1995  hoy     1 KAO      H1995            1995       0.425000
 1996  hoy     1 KAO      H1996            1996       0.425000
 1997  hoy     1 KAO      H1997            1997       0.425000
 1998  hoy     1 KAO      H1998            1998       0.425000
 1999  oby     1 KAO      O1999            1999      -1.050000
 2000  oby     1 KAO      O2000            2000      -1.050000
 2001  ohy     1 KAO      O2001            2001      -0.950000
 2002  hoy     1 KAO      H2002            2002       0.425000
 2003  ohy     1 KAO      O2003            2003      -0.950000
 2004  hoy     1 KAO      H2004            2004       0.425000
 2005  ohy     1 KAO      O2005            2005      -0.950000
 2006  hoy     1 KAO      H2006            2006       0.425000
 2007  ohy     1 KAO      O2007            2007      -0.950000
 2008  hoy     1 KAO      H2008            2008       0.425000
 2009  ohy     1 KAO      O2009            2009      -0.950000
 2010  hoy     1 KAO      H2010            2010       0.425000
 2011  ohy     1 KAO      O2011            2011      -0.950000
 2012  hoy     1 KAO      H2012            2012       0.425000
 2013  ohy     1 KAO      O2013            2013      -0.950000
 2014  hoy     1 KAO      H2014            2014       0.425000
 2015  ohy     1 KAO      O2015            2015      -0.950000
 2016  hoy     1 KAO      H2016            2016       0.425000
 2017  ohy     1 KAO      O2017            2017      -0.950000
 2018  hoy     1 KAO      H2018            2018       0.425000
 2019  ohy     1 KAO      O2019            2019      -0.950000
 2020  hoy     1 KAO      H2020            2020       0.425000
 2021  hoy     1 KAO      H2021            2021       0.425000
 2022  hoy     1 KAO      H2022            2022       0.425000
 2023  hoy     1 KAO      H2023            2023       0.425000
 2024  hoy     1 KAO      H2024            2024       0.425000
 2025  hoy     1 KAO      H2025            2025       0.425000
 2026  hoy     1 KAO      H2026            2026       0.425000
 2027  hoy     1 KAO      H2027            2027       0.425000
 2028  hoy     1 KAO      H2028            2028       0.425000
 2029  hoy     1 KAO      H2029            2029       0.425000
 2030  hoy     1 KAO      H2030            2030       0.425000
 2031  hoy     1 KAO      H2031            2031       0.425000
 2032  hoy     1 KAO      H2032            2032       0.425000
 2033  hoy     1 KAO      H2033            2033       0.425000
 2034  hoy     1 KAO      H2034            2034       0.425000
 2035  hoy     1 KAO      H2035            2035       0.425000
 2036  hoy     1 KAO      H2036            2036       0.425000
 2037  hoy     1 KAO      H2037            2037       0.425000
 2038  hoy     1 KAO      H2038            2038       0.425000
 2039  hoy     1 KAO      H2039            2039       0.425000
 2040  hoy     1 KAO      H2040            2040       0.425000

[ bonds ]
;     ai      aj   func 
      18      24     1 
      19      25     1 
      20      26     1 
      21      27     1 
      22      28     1 
      23      29     1 
      39      44     1 
      40      45     1 
      41      46     1 
      42      47     1 
      43      49     1 
     109      48     1 
      67      73     1 
      68      74     1 
      69      75     1 
      70      76     1 
      71      77     1 
      72      78     1 
      88      93     1 
      89      94     1 
      90      95     1 
      91      96     1 
      92      98     1 
     122      97     1 
     107     110     1 
     108     111     1 
     120     123     1 
     121     124     1 
     126     128     1 
     127     129     1 
     131     133     1 
     132     134     1 
     153     161     1 
     154     162     1 
     155     163     1 
     156     164     1 
     157     165     1 
     158     166     1 
     159     167     1 
     160     168     1 
     186     194     1 
     187     195     1 
     188     196     1 
     189     197     1 
     190     198     1 
     191     199     1 
     192     200     1 
     193     201     1 
     220     228     1 
     221     229     1 
     222     230     1 
     223     231     1 
     224     232     1 
     225     233     1 
     226     234     1 
     227     235     1 
     253     261     1 
     254     262     1 
     255     263     1 
     256     264     1 
     257     265     1 
     258     266     1 
     259     267     1 
     260     268     1 
     287     295     1 
     288     296     1 
     289     297     1 
     290     298     1 
     291     299     1 
     292     300     1 
     293     301     1 
     294     302     1 
     320     328     1 
     321     329     1 
     322     330     1 
     323     331     1 
     324     332     1 
     325     333     1 
     326     334     1 
     327     335     1 
     354     362     1 
     355     363     1 
     356     364     1 
     357     365     1 
     358     366     1 
     359     367     1 
     360     368     1 
     361     369     1 
     387     395     1 
     388     396     1 
     389     397     1 
     390     398     1 
     391     399     1 
     392     400     1 
     393     401     1 
     394     402     1 
     421     429     1 
     422     430     1 
     423     431     1 
     424     432     1 
     425     433     1 
     426     434     1 
     427     435     1 
     428     436     1 
     454     462     1 
     455     463     1 
     456     464     1 
     457     465     1 
     458     466     1 
     459     467     1 
     460     468     1 
     461     469     1 
     488     496     1 
     489     497     1 
     490     498     1 
     491     499     1 
     492     500     1 
     493     501     1 
     494     502     1 
     495     503     1 
     521     529     1 
     522     530     1 
     523     531     1 
     524     532     1 
     525     533     1 
     526     534     1 
     527     535     1 
     528     536     1 
     555     562     1 
     556     563     1 
     557     564     1 
     558     565     1 
     559     566     1 
     560     567     1 
     561     568     1 
     586     593     1 
     587     594     1 
     588     595     1 
     589     596     1 
     590     597     1 
     591     598     1 
     592     599     1 
     618     625     1 
     619     626     1 
     620     627     1 
     621     628     1 
     622     629     1 
     623     630     1 
     624     631     1 
     649     656     1 
     650     657     1 
     651     658     1 
     652     659     1 
     653     660     1 
     654     661     1 
     655     662     1 
     681     687     1 
     682     688     1 
     683     689     1 
     684     690     1 
     685     691     1 
     686     692     1 
     711     717     1 
     712     718     1 
     713     719     1 
     714     720     1 
     715     721     1 
     716     722     1 
     741     749     1 
     742     750     1 
     743     751     1 
     744     752     1 
     745     753     1 
     746     754     1 
     747     755     1 
     748     756     1 
     775     783     1 
     776     784     1 
     777     785     1 
     778     786     1 
     779     787     1 
     780     788     1 
     781     789     1 
     782     790     1 
     809     817     1 
     810     818     1 
     811     819     1 
     812     820     1 
     813     821     1 
     814     822     1 
     815     823     1 
     816     824     1 
     843     851     1 
     844     852     1 
     845     853     1 
     846     854     1 
     847     855     1 
     848     856     1 
     849     857     1 
     850     858     1 
     877     884     1 
     878     885     1 
     879     886     1 
     880     887     1 
     881     888     1 
     882     889     1 
     883     890     1 
     909     916     1 
     910     917     1 
     911     918     1 
     912     919     1 
     913     920     1 
     914     921     1 
     915     922     1 
     941     948     1 
     942     949     1 
     943     950     1 
     944     951     1 
     945     952     1 
     946     953     1 
     947     954     1 
     973    2021     1 
     974     979     1 
     975     980     1 
     976     981     1 
     977     982     1 
     978     983     1 
     993    2022     1 
     994     997     1 
     995     998     1 
     996    1062     1 
    1058     999     1 
    1059    1000     1 
    1019    2023     1 
    1020    1025     1 
    1021    1026     1 
    1022    1027     1 
    1023    1028     1 
    1024    1029     1 
    1039    2024     1 
    1040    1043     1 
    1041    1044     1 
    1042    1078     1 
    1074    1045     1 
    1075    1046     1 
    1056    1060     1 
    1057    1061     1 
    1072    1076     1 
    1073    1077     1 
    1079    1081     1 
    1080    1082     1 
    1083    1085     1 
    1084    1086     1 
    1105    2025     1 
    1106    1113     1 
    1107    1114     1 
    1108    1115     1 
    1109    1116     1 
    1110    1117     1 
    1111    1118     1 
    1112    1119     1 
    1138    2026     1 
    1139    1146     1 
    1140    1147     1 
    1141    1148     1 
    1142    1149     1 
    1143    1150     1 
    1144    1151     1 
    1145    1152     1 
    1171    2027     1 
    1172    1179     1 
    1173    1180     1 
    1174    1181     1 
    1175    1182     1 
    1176    1183     1 
    1177    1184     1 
    1178    1185     1 
    1204    2028     1 
    1205    1212     1 
    1206    1213     1 
    1207    1214     1 
    1208    1215     1 
    1209    1216     1 
    1210    1217     1 
    1211    1218     1 
    1237    2029     1 
    1238    1245     1 
    1239    1246     1 
    1240    1247     1 
    1241    1248     1 
    1242    1249     1 
    1243    1250     1 
    1244    1251     1 
    1270    2030     1 
    1271    1278     1 
    1272    1279     1 
    1273    1280     1 
    1274    1281     1 
    1275    1282     1 
    1276    1283     1 
    1277    1284     1 
    1303    2031     1 
    1304    1311     1 
    1305    1312     1 
    1306    1313     1 
    1307    1314     1 
    1308    1315     1 
    1309    1316     1 
    1310    1317     1 
    1336    2032     1 
    1337    1344     1 
    1338    1345     1 
    1339    1346     1 
    1340    1347     1 
    1341    1348     1 
    1342    1349     1 
    1343    1350     1 
    1369    2033     1 
    1370    1377     1 
    1371    1378     1 
    1372    1379     1 
    1373    1380     1 
    1374    1381     1 
    1375    1382     1 
    1376    1383     1 
    1402    2034     1 
    1403    1410     1 
    1404    1411     1 
    1405    1412     1 
    1406    1413     1 
    1407    1414     1 
    1408    1415     1 
    1409    1416     1 
    1435    2035     1 
    1436    1443     1 
    1437    1444     1 
    1438    1445     1 
    1439    1446     1 
    1440    1447     1 
    1441    1448     1 
    1442    1449     1 
    1468    2036     1 
    1469    1476     1 
    1470    1477     1 
    1471    1478     1 
    1472    1479     1 
    1473    1480     1 
    1474    1481     1 
    1475    1482     1 
    1501    2037     1 
    1502    1508     1 
    1503    1509     1 
    1504    1510     1 
    1505    1511     1 
    1506    1512     1 
    1507    1513     1 
    1532    2038     1 
    1533    1539     1 
    1534    1540     1 
    1535    1541     1 
    1536    1542     1 
    1537    1543     1 
    1538    1544     1 
    1563    2039     1 
    1564    1570     1 
    1565    1571     1 
    1566    1572     1 
    1567    1573     1 
    1568    1574     1 
    1569    1575     1 
    1594    2040     1 
    1595    1601     1 
    1596    1602     1 
    1597    1603     1 
    1598    1604     1 
    1599    1605     1 
    1600    1606     1 
    1607    1608     1 
    1609    1610     1 
    1630    1634     1 
    1631    1635     1 
    1632    1636     1 
    1633    1637     1 
    1670    1638     1 
    1671    1639     1 
    1645    1647     1 
    1654    1646     1 
    1685    1648     1 
    1686    1649     1 
    1655    1657     1 
    1656    1658     1 
    1668    1672     1 
    1669    1673     1 
    1683    1687     1 
    1684    1688     1 
    1689    1691     1 
    1690    1692     1 
    1693    1695     1 
    1694    1696     1 
    1715    1723     1 
    1716    1724     1 
    1717    1725     1 
    1718    1726     1 
    1719    1727     1 
    1720    1728     1 
    1721    1729     1 
    1722    1730     1 
    1749    1757     1 
    1750    1758     1 
    1751    1759     1 
    1752    1760     1 
    1753    1761     1 
    1754    1762     1 
    1755    1763     1 
    1756    1764     1 
    1783    1791     1 
    1784    1792     1 
    1785    1793     1 
    1786    1794     1 
    1787    1795     1 
    1788    1796     1 
    1789    1797     1 
    1790    1798     1 
    1817    1825     1 
    1818    1826     1 
    1819    1827     1 
    1820    1828     1 
    1821    1829     1 
    1822    1830     1 
    1823    1831     1 
    1824    1832     1 
    1851    1859     1 
    1852    1860     1 
    1853    1861     1 
    1854    1862     1 
    1855    1863     1 
    1856    1864     1 
    1857    1865     1 
    1858    1866     1 
    1885    1893     1 
    1886    1894     1 
    1887    1895     1 
    1888    1896     1 
    1889    1897     1 
    1890    1898     1 
    1891    1899     1 
    1892    1900     1 
    1919    1927     1 
    1920    1928     1 
    1921    1929     1 
    1922    1930     1 
    1923    1931     1 
    1924    1932     1 
    1925    1933     1 
    1926    1934     1 
    1953    1961     1 
    1954    1962     1 
    1955    1963     1 
    1956    1964     1 
    1957    1965     1 
    1958    1966     1 
    1959    1967     1 
    1960    1968     1 
    1985    1992     1 
    1986    1993     1 
    1987    1994     1 
    1988    1995     1 
    1989    1996     1 
    1990    1997     1 
    1991    1998     1 
    2001    2002     1 
    2003    2004     1 
    2005    2006     1 
    2007    2008     1 
    2009    2010     1 
    2011    2012     1 
    2013    2014     1 
    2015    2016     1 
    2017    2018     1 
    2019    2020     1 

[ angles ]
;     ai      aj      ak   func 
       2      18      24     1 
     539      18      24     1 
       4      19      25     1 
     957      19      25     1 
       1      20      26     1 
       4      20      26     1 
       1      21      27     1 
       2      21      27     1 
       2      22      28     1 
       3      22      28     1 
       1      23      29     1 
       4      23      29     1 
      31      39      44     1 
     571      39      44     1 
      30      40      45     1 
     572      40      45     1 
      31      41      46     1 
     571      41      46     1 
      30      42      47     1 
      31      42      47     1 
      30      43      49     1 
     100      43      49     1 
      51      67      73     1 
     602      67      73     1 
      53      68      74     1 
    1003      68      74     1 
      50      69      75     1 
      53      69      75     1 
      50      70      76     1 
      51      70      76     1 
      51      71      77     1 
      52      71      77     1 
      50      72      78     1 
      53      72      78     1 
     634      88      93     1 
      80      88      93     1 
      79      89      94     1 
     635      89      94     1 
     634      90      95     1 
      80      90      95     1 
      79      91      96     1 
      80      91      96     1 
      79      92      98     1 
     113      92      98     1 
     100     107     110     1 
    1047     107     110     1 
      30     108     111     1 
     100     108     111     1 
      31     109      48     1 
      99     109      48     1 
     113     120     123     1 
    1063     120     123     1 
     113     121     124     1 
      79     121     124     1 
      80     122      97     1 
     112     122      97     1 
       1     126     128     1 
     540     126     128     1 
       2     127     129     1 
     539     127     129     1 
      50     131     133     1 
     603     131     133     1 
      51     132     134     1 
     602     132     134     1 
       3     153     161     1 
     136     153     161     1 
     138     154     162     1 
    1089     154     162     1 
     135     155     163     1 
       4     155     163     1 
       3     156     164     1 
     136     156     164     1 
     135     157     165     1 
     138     157     165     1 
     135     158     166     1 
     136     158     166     1 
     136     159     167     1 
     137     159     167     1 
     135     160     168     1 
     138     160     168     1 
      99     186     194     1 
     170     186     194     1 
     172     187     195     1 
    1122     187     195     1 
     169     188     196     1 
     100     188     196     1 
      99     189     197     1 
     170     189     197     1 
     169     190     198     1 
     172     190     198     1 
     169     191     199     1 
     170     191     199     1 
     170     192     200     1 
     171     192     200     1 
     169     193     201     1 
     172     193     201     1 
      52     220     228     1 
     203     220     228     1 
     205     221     229     1 
    1155     221     229     1 
     202     222     230     1 
      53     222     230     1 
      52     223     231     1 
     203     223     231     1 
     202     224     232     1 
     205     224     232     1 
     202     225     233     1 
     203     225     233     1 
     203     226     234     1 
     204     226     234     1 
     202     227     235     1 
     205     227     235     1 
     112     253     261     1 
     237     253     261     1 
     239     254     262     1 
    1188     254     262     1 
     236     255     263     1 
     113     255     263     1 
     112     256     264     1 
     237     256     264     1 
     236     257     265     1 
     239     257     265     1 
     236     258     266     1 
     237     258     266     1 
     237     259     267     1 
     238     259     267     1 
     236     260     268     1 
     239     260     268     1 
     137     287     295     1 
     270     287     295     1 
     272     288     296     1 
    1221     288     296     1 
     269     289     297     1 
     138     289     297     1 
     137     290     298     1 
     270     290     298     1 
     269     291     299     1 
     272     291     299     1 
     269     292     300     1 
     270     292     300     1 
     270     293     301     1 
     271     293     301     1 
     269     294     302     1 
     272     294     302     1 
     171     320     328     1 
     304     320     328     1 
     306     321     329     1 
    1254     321     329     1 
     303     322     330     1 
     172     322     330     1 
     171     323     331     1 
     304     323     331     1 
     303     324     332     1 
     306     324     332     1 
     303     325     333     1 
     304     325     333     1 
     304     326     334     1 
     305     326     334     1 
     303     327     335     1 
     306     327     335     1 
     204     354     362     1 
     337     354     362     1 
     339     355     363     1 
    1287     355     363     1 
     336     356     364     1 
     205     356     364     1 
     204     357     365     1 
     337     357     365     1 
     336     358     366     1 
     339     358     366     1 
     336     359     367     1 
     337     359     367     1 
     337     360     368     1 
     338     360     368     1 
     336     361     369     1 
     339     361     369     1 
     238     387     395     1 
     371     387     395     1 
     373     388     396     1 
    1320     388     396     1 
     370     389     397     1 
     239     389     397     1 
     238     390     398     1 
     371     390     398     1 
     370     391     399     1 
     373     391     399     1 
     370     392     400     1 
     371     392     400     1 
     371     393     401     1 
     372     393     401     1 
     370     394     402     1 
     373     394     402     1 
     271     421     429     1 
     404     421     429     1 
     406     422     430     1 
    1353     422     430     1 
     403     423     431     1 
     272     423     431     1 
     271     424     432     1 
     404     424     432     1 
     403     425     433     1 
     406     425     433     1 
     403     426     434     1 
     404     426     434     1 
     404     427     435     1 
     405     427     435     1 
     403     428     436     1 
     406     428     436     1 
     305     454     462     1 
     438     454     462     1 
     440     455     463     1 
    1386     455     463     1 
     437     456     464     1 
     306     456     464     1 
     305     457     465     1 
     438     457     465     1 
     437     458     466     1 
     440     458     466     1 
     437     459     467     1 
     438     459     467     1 
     438     460     468     1 
     439     460     468     1 
     437     461     469     1 
     440     461     469     1 
     338     488     496     1 
     471     488     496     1 
     473     489     497     1 
    1419     489     497     1 
     470     490     498     1 
     339     490     498     1 
     338     491     499     1 
     471     491     499     1 
     470     492     500     1 
     473     492     500     1 
     470     493     501     1 
     471     493     501     1 
     471     494     502     1 
     472     494     502     1 
     470     495     503     1 
     473     495     503     1 
     372     521     529     1 
     505     521     529     1 
     507     522     530     1 
    1452     522     530     1 
     504     523     531     1 
     373     523     531     1 
     372     524     532     1 
     505     524     532     1 
     504     525     533     1 
     507     525     533     1 
     504     526     534     1 
     505     526     534     1 
     505     527     535     1 
     506     527     535     1 
     504     528     536     1 
     507     528     536     1 
     405     555     562     1 
     538     555     562     1 
     537     556     563     1 
     406     556     563     1 
     405     557     564     1 
     538     557     564     1 
     537     558     565     1 
     540     558     565     1 
     537     559     566     1 
     538     559     566     1 
     538     560     567     1 
     539     560     567     1 
     537     561     568     1 
     540     561     568     1 
     439     586     593     1 
     570     586     593     1 
     569     587     594     1 
     440     587     594     1 
     439     588     595     1 
     570     588     595     1 
     569     589     596     1 
     572     589     596     1 
     569     590     597     1 
     570     590     597     1 
     570     591     598     1 
     571     591     598     1 
     569     592     599     1 
     572     592     599     1 
     472     618     625     1 
     601     618     625     1 
     600     619     626     1 
     473     619     626     1 
     472     620     627     1 
     601     620     627     1 
     600     621     628     1 
     603     621     628     1 
     600     622     629     1 
     601     622     629     1 
     601     623     630     1 
     602     623     630     1 
     600     624     631     1 
     603     624     631     1 
     506     649     656     1 
     633     649     656     1 
     632     650     657     1 
     507     650     657     1 
     506     651     658     1 
     633     651     658     1 
     632     652     659     1 
     635     652     659     1 
     632     653     660     1 
     633     653     660     1 
     633     654     661     1 
     634     654     661     1 
     632     655     662     1 
     635     655     662     1 
     664     681     687     1 
     861     681     687     1 
       3     682     688     1 
     666     682     688     1 
     663     683     689     1 
     666     683     689     1 
     663     684     690     1 
     664     684     690     1 
     664     685     691     1 
     665     685     691     1 
     663     686     692     1 
     666     686     692     1 
     694     711     717     1 
    1971     711     717     1 
      52     712     718     1 
     696     712     718     1 
     693     713     719     1 
     696     713     719     1 
     693     714     720     1 
     694     714     720     1 
     694     715     721     1 
     695     715     721     1 
     693     716     722     1 
     696     716     722     1 
     665     741     749     1 
     724     741     749     1 
     137     742     750     1 
     726     742     750     1 
     723     743     751     1 
     666     743     751     1 
     665     744     752     1 
     724     744     752     1 
     723     745     753     1 
     726     745     753     1 
     723     746     754     1 
     724     746     754     1 
     724     747     755     1 
     725     747     755     1 
     723     748     756     1 
     726     748     756     1 
    1659     775     783     1 
     758     775     783     1 
     171     776     784     1 
     760     776     784     1 
     757     777     785     1 
    1660     777     785     1 
    1659     778     786     1 
     758     778     786     1 
     757     779     787     1 
     760     779     787     1 
     757     780     788     1 
     758     780     788     1 
     758     781     789     1 
     759     781     789     1 
     757     782     790     1 
     760     782     790     1 
     695     809     817     1 
     792     809     817     1 
     204     810     818     1 
     794     810     818     1 
     791     811     819     1 
     696     811     819     1 
     695     812     820     1 
     792     812     820     1 
     791     813     821     1 
     794     813     821     1 
     791     814     822     1 
     792     814     822     1 
     792     815     823     1 
     793     815     823     1 
     791     816     824     1 
     794     816     824     1 
    1674     843     851     1 
     826     843     851     1 
     238     844     852     1 
     828     844     852     1 
     825     845     853     1 
    1675     845     853     1 
    1674     846     854     1 
     826     846     854     1 
     825     847     855     1 
     828     847     855     1 
     825     848     856     1 
     826     848     856     1 
     826     849     857     1 
     827     849     857     1 
     825     850     858     1 
     828     850     858     1 
    1835     877     884     1 
     860     877     884     1 
     859     878     885     1 
    1836     878     885     1 
    1835     879     886     1 
     860     879     886     1 
     859     880     887     1 
     862     880     887     1 
     859     881     888     1 
     860     881     888     1 
     860     882     889     1 
     861     882     889     1 
     859     883     890     1 
     862     883     890     1 
    1869     909     916     1 
     892     909     916     1 
     891     910     917     1 
    1870     910     917     1 
    1869     911     918     1 
     892     911     918     1 
     891     912     919     1 
     894     912     919     1 
     891     913     920     1 
     892     913     920     1 
     892     914     921     1 
     893     914     921     1 
     891     915     922     1 
     894     915     922     1 
    1937     941     948     1 
     924     941     948     1 
     923     942     949     1 
    1938     942     949     1 
    1937     943     950     1 
     924     943     950     1 
     923     944     951     1 
     926     944     951     1 
     923     945     952     1 
     924     945     952     1 
     924     946     953     1 
     925     946     953     1 
     923     947     954     1 
     926     947     954     1 
     956     973    2021     1 
    1485     973    2021     1 
     665     974     979     1 
     958     974     979     1 
     955     975     980     1 
     958     975     980     1 
     955     976     981     1 
     956     976     981     1 
     956     977     982     1 
     957     977     982     1 
     955     978     983     1 
     958     978     983     1 
     985     993    2022     1 
    1516     993    2022     1 
     984     994     997     1 
    1517     994     997     1 
     985     995     998     1 
    1516     995     998     1 
     984     996    1062     1 
     985     996    1062     1 
    1002    1019    2023     1 
    1547    1019    2023     1 
     695    1020    1025     1 
    1004    1020    1025     1 
    1001    1021    1026     1 
    1004    1021    1026     1 
    1001    1022    1027     1 
    1002    1022    1027     1 
    1002    1023    1028     1 
    1003    1023    1028     1 
    1001    1024    1029     1 
    1004    1024    1029     1 
    1578    1039    2024     1 
    1031    1039    2024     1 
    1030    1040    1043     1 
    1579    1040    1043     1 
    1578    1041    1044     1 
    1031    1041    1044     1 
    1030    1042    1078     1 
    1031    1042    1078     1 
    1659    1056    1060     1 
    1048    1056    1060     1 
     984    1057    1061     1 
    1048    1057    1061     1 
     985    1058     999     1 
    1047    1058     999     1 
     984    1059    1000     1 
    1048    1059    1000     1 
    1674    1072    1076     1 
    1064    1072    1076     1 
    1064    1073    1077     1 
    1030    1073    1077     1 
    1031    1074    1045     1 
    1063    1074    1045     1 
    1030    1075    1046     1 
    1064    1075    1046     1 
     955    1079    1081     1 
    1486    1079    1081     1 
     956    1080    1082     1 
    1485    1080    1082     1 
    1001    1083    1085     1 
    1548    1083    1085     1 
    1002    1084    1086     1 
    1547    1084    1086     1 
     957    1105    2025     1 
    1088    1105    2025     1 
     725    1106    1113     1 
    1090    1106    1113     1 
    1087    1107    1114     1 
     958    1107    1114     1 
     957    1108    1115     1 
    1088    1108    1115     1 
    1087    1109    1116     1 
    1090    1109    1116     1 
    1087    1110    1117     1 
    1088    1110    1117     1 
    1088    1111    1118     1 
    1089    1111    1118     1 
    1087    1112    1119     1 
    1090    1112    1119     1 
    1047    1138    2026     1 
    1121    1138    2026     1 
     759    1139    1146     1 
    1123    1139    1146     1 
    1120    1140    1147     1 
    1048    1140    1147     1 
    1047    1141    1148     1 
    1121    1141    1148     1 
    1120    1142    1149     1 
    1123    1142    1149     1 
    1120    1143    1150     1 
    1121    1143    1150     1 
    1121    1144    1151     1 
    1122    1144    1151     1 
    1120    1145    1152     1 
    1123    1145    1152     1 
    1003    1171    2027     1 
    1154    1171    2027     1 
     793    1172    1179     1 
    1156    1172    1179     1 
    1153    1173    1180     1 
    1004    1173    1180     1 
    1003    1174    1181     1 
    1154    1174    1181     1 
    1153    1175    1182     1 
    1156    1175    1182     1 
    1153    1176    1183     1 
    1154    1176    1183     1 
    1154    1177    1184     1 
    1155    1177    1184     1 
    1153    1178    1185     1 
    1156    1178    1185     1 
    1063    1204    2028     1 
    1187    1204    2028     1 
     827    1205    1212     1 
    1189    1205    1212     1 
    1186    1206    1213     1 
    1064    1206    1213     1 
    1063    1207    1214     1 
    1187    1207    1214     1 
    1186    1208    1215     1 
    1189    1208    1215     1 
    1186    1209    1216     1 
    1187    1209    1216     1 
    1187    1210    1217     1 
    1188    1210    1217     1 
    1186    1211    1218     1 
    1189    1211    1218     1 
    1089    1237    2029     1 
    1220    1237    2029     1 
    1699    1238    1245     1 
    1222    1238    1245     1 
    1219    1239    1246     1 
    1090    1239    1246     1 
    1089    1240    1247     1 
    1220    1240    1247     1 
    1219    1241    1248     1 
    1222    1241    1248     1 
    1219    1242    1249     1 
    1220    1242    1249     1 
    1220    1243    1250     1 
    1221    1243    1250     1 
    1219    1244    1251     1 
    1222    1244    1251     1 
    1122    1270    2030     1 
    1253    1270    2030     1 
    1733    1271    1278     1 
    1255    1271    1278     1 
    1252    1272    1279     1 
    1123    1272    1279     1 
    1122    1273    1280     1 
    1253    1273    1280     1 
    1252    1274    1281     1 
    1255    1274    1281     1 
    1252    1275    1282     1 
    1253    1275    1282     1 
    1253    1276    1283     1 
    1254    1276    1283     1 
    1252    1277    1284     1 
    1255    1277    1284     1 
    1155    1303    2031     1 
    1286    1303    2031     1 
    1767    1304    1311     1 
    1288    1304    1311     1 
    1285    1305    1312     1 
    1156    1305    1312     1 
    1155    1306    1313     1 
    1286    1306    1313     1 
    1285    1307    1314     1 
    1288    1307    1314     1 
    1285    1308    1315     1 
    1286    1308    1315     1 
    1286    1309    1316     1 
    1287    1309    1316     1 
    1285    1310    1317     1 
    1288    1310    1317     1 
    1188    1336    2032     1 
    1319    1336    2032     1 
    1801    1337    1344     1 
    1321    1337    1344     1 
    1318    1338    1345     1 
    1189    1338    1345     1 
    1188    1339    1346     1 
    1319    1339    1346     1 
    1318    1340    1347     1 
    1321    1340    1347     1 
    1318    1341    1348     1 
    1319    1341    1348     1 
    1319    1342    1349     1 
    1320    1342    1349     1 
    1318    1343    1350     1 
    1321    1343    1350     1 
    1221    1369    2033     1 
    1352    1369    2033     1 
    1835    1370    1377     1 
    1354    1370    1377     1 
    1351    1371    1378     1 
    1222    1371    1378     1 
    1221    1372    1379     1 
    1352    1372    1379     1 
    1351    1373    1380     1 
    1354    1373    1380     1 
    1351    1374    1381     1 
    1352    1374    1381     1 
    1352    1375    1382     1 
    1353    1375    1382     1 
    1351    1376    1383     1 
    1354    1376    1383     1 
    1254    1402    2034     1 
    1385    1402    2034     1 
    1869    1403    1410     1 
    1387    1403    1410     1 
    1384    1404    1411     1 
    1255    1404    1411     1 
    1254    1405    1412     1 
    1385    1405    1412     1 
    1384    1406    1413     1 
    1387    1406    1413     1 
    1384    1407    1414     1 
    1385    1407    1414     1 
    1385    1408    1415     1 
    1386    1408    1415     1 
    1384    1409    1416     1 
    1387    1409    1416     1 
    1287    1435    2035     1 
    1418    1435    2035     1 
    1903    1436    1443     1 
    1420    1436    1443     1 
    1417    1437    1444     1 
    1288    1437    1444     1 
    1287    1438    1445     1 
    1418    1438    1445     1 
    1417    1439    1446     1 
    1420    1439    1446     1 
    1417    1440    1447     1 
    1418    1440    1447     1 
    1418    1441    1448     1 
    1419    1441    1448     1 
    1417    1442    1449     1 
    1420    1442    1449     1 
    1320    1468    2036     1 
    1451    1468    2036     1 
    1937    1469    1476     1 
    1453    1469    1476     1 
    1450    1470    1477     1 
    1321    1470    1477     1 
    1320    1471    1478     1 
    1451    1471    1478     1 
    1450    1472    1479     1 
    1453    1472    1479     1 
    1450    1473    1480     1 
    1451    1473    1480     1 
    1451    1474    1481     1 
    1452    1474    1481     1 
    1450    1475    1482     1 
    1453    1475    1482     1 
    1353    1501    2037     1 
    1484    1501    2037     1 
    1483    1502    1508     1 
    1354    1502    1508     1 
    1353    1503    1509     1 
    1484    1503    1509     1 
    1483    1504    1510     1 
    1486    1504    1510     1 
    1483    1505    1511     1 
    1484    1505    1511     1 
    1484    1506    1512     1 
    1485    1506    1512     1 
    1483    1507    1513     1 
    1486    1507    1513     1 
    1386    1532    2038     1 
    1515    1532    2038     1 
    1514    1533    1539     1 
    1387    1533    1539     1 
    1386    1534    1540     1 
    1515    1534    1540     1 
    1514    1535    1541     1 
    1517    1535    1541     1 
    1514    1536    1542     1 
    1515    1536    1542     1 
    1515    1537    1543     1 
    1516    1537    1543     1 
    1514    1538    1544     1 
    1517    1538    1544     1 
    1419    1563    2039     1 
    1546    1563    2039     1 
    1545    1564    1570     1 
    1420    1564    1570     1 
    1419    1565    1571     1 
    1546    1565    1571     1 
    1545    1566    1572     1 
    1548    1566    1572     1 
    1545    1567    1573     1 
    1546    1567    1573     1 
    1546    1568    1574     1 
    1547    1568    1574     1 
    1545    1569    1575     1 
    1548    1569    1575     1 
    1452    1594    2040     1 
    1577    1594    2040     1 
    1576    1595    1601     1 
    1453    1595    1601     1 
    1452    1596    1602     1 
    1577    1596    1602     1 
    1576    1597    1603     1 
    1579    1597    1603     1 
    1576    1598    1604     1 
    1577    1598    1604     1 
    1577    1599    1605     1 
    1578    1599    1605     1 
    1576    1600    1606     1 
    1579    1600    1606     1 
     572    1607    1608     1 
    1516    1607    1608     1 
     571    1609    1610     1 
     894    1609    1610     1 
    1622    1630    1634     1 
     893    1630    1634     1 
    1621    1631    1635     1 
     894    1631    1635     1 
    1622    1632    1636     1 
     893    1632    1636     1 
    1621    1633    1637     1 
    1622    1633    1637     1 
    1640    1645    1647     1 
    1641    1645    1647     1 
     925    1654    1646     1 
    1641    1654    1646     1 
    1640    1655    1657     1 
     926    1655    1657     1 
     925    1656    1658     1 
    1641    1656    1658     1 
      99    1668    1672     1 
    1660    1668    1672     1 
    1621    1669    1673     1 
    1660    1669    1673     1 
    1622    1670    1638     1 
    1659    1670    1638     1 
    1621    1671    1639     1 
    1660    1671    1639     1 
     112    1683    1687     1 
    1675    1683    1687     1 
    1675    1684    1688     1 
    1640    1684    1688     1 
    1641    1685    1648     1 
    1674    1685    1648     1 
    1640    1686    1649     1 
    1675    1686    1649     1 
     663    1689    1691     1 
     862    1689    1691     1 
     664    1690    1692     1 
     861    1690    1692     1 
     693    1693    1695     1 
    1972    1693    1695     1 
     694    1694    1696     1 
    1971    1694    1696     1 
     725    1715    1723     1 
    1698    1715    1723     1 
     271    1716    1724     1 
    1700    1716    1724     1 
    1697    1717    1725     1 
     726    1717    1725     1 
     725    1718    1726     1 
    1698    1718    1726     1 
    1697    1719    1727     1 
    1700    1719    1727     1 
    1697    1720    1728     1 
    1698    1720    1728     1 
    1698    1721    1729     1 
    1699    1721    1729     1 
    1697    1722    1730     1 
    1700    1722    1730     1 
     759    1749    1757     1 
    1732    1749    1757     1 
     305    1750    1758     1 
    1734    1750    1758     1 
    1731    1751    1759     1 
     760    1751    1759     1 
     759    1752    1760     1 
    1732    1752    1760     1 
    1731    1753    1761     1 
    1734    1753    1761     1 
    1731    1754    1762     1 
    1732    1754    1762     1 
    1732    1755    1763     1 
    1733    1755    1763     1 
    1731    1756    1764     1 
    1734    1756    1764     1 
     793    1783    1791     1 
    1766    1783    1791     1 
     338    1784    1792     1 
    1768    1784    1792     1 
    1765    1785    1793     1 
     794    1785    1793     1 
     793    1786    1794     1 
    1766    1786    1794     1 
    1765    1787    1795     1 
    1768    1787    1795     1 
    1765    1788    1796     1 
    1766    1788    1796     1 
    1766    1789    1797     1 
    1767    1789    1797     1 
    1765    1790    1798     1 
    1768    1790    1798     1 
     827    1817    1825     1 
    1800    1817    1825     1 
     372    1818    1826     1 
    1802    1818    1826     1 
    1799    1819    1827     1 
     828    1819    1827     1 
     827    1820    1828     1 
    1800    1820    1828     1 
    1799    1821    1829     1 
    1802    1821    1829     1 
    1799    1822    1830     1 
    1800    1822    1830     1 
    1800    1823    1831     1 
    1801    1823    1831     1 
    1799    1824    1832     1 
    1802    1824    1832     1 
    1699    1851    1859     1 
    1834    1851    1859     1 
     405    1852    1860     1 
    1836    1852    1860     1 
    1833    1853    1861     1 
    1700    1853    1861     1 
    1699    1854    1862     1 
    1834    1854    1862     1 
    1833    1855    1863     1 
    1836    1855    1863     1 
    1833    1856    1864     1 
    1834    1856    1864     1 
    1834    1857    1865     1 
    1835    1857    1865     1 
    1833    1858    1866     1 
    1836    1858    1866     1 
    1733    1885    1893     1 
    1868    1885    1893     1 
     439    1886    1894     1 
    1870    1886    1894     1 
    1867    1887    1895     1 
    1734    1887    1895     1 
    1733    1888    1896     1 
    1868    1888    1896     1 
    1867    1889    1897     1 
    1870    1889    1897     1 
    1867    1890    1898     1 
    1868    1890    1898     1 
    1868    1891    1899     1 
    1869    1891    1899     1 
    1867    1892    1900     1 
    1870    1892    1900     1 
    1767    1919    1927     1 
    1902    1919    1927     1 
     472    1920    1928     1 
    1904    1920    1928     1 
    1901    1921    1929     1 
    1768    1921    1929     1 
    1767    1922    1930     1 
    1902    1922    1930     1 
    1901    1923    1931     1 
    1904    1923    1931     1 
    1901    1924    1932     1 
    1902    1924    1932     1 
    1902    1925    1933     1 
    1903    1925    1933     1 
    1901    1926    1934     1 
    1904    1926    1934     1 
    1801    1953    1961     1 
    1936    1953    1961     1 
     506    1954    1962     1 
    1938    1954    1962     1 
    1935    1955    1963     1 
    1802    1955    1963     1 
    1801    1956    1964     1 
    1936    1956    1964     1 
    1935    1957    1965     1 
    1938    1957    1965     1 
    1935    1958    1966     1 
    1936    1958    1966     1 
    1936    1959    1967     1 
    1937    1959    1967     1 
    1935    1960    1968     1 
    1938    1960    1968     1 
    1903    1985    1992     1 
    1970    1985    1992     1 
    1969    1986    1993     1 
    1904    1986    1993     1 
    1903    1987    1994     1 
    1970    1987    1994     1 
    1969    1988    1995     1 
    1972    1988    1995     1 
    1969    1989    1996     1 
    1970    1989    1996     1 
    1970    1990    1997     1 
    1971    1990    1997     1 
    1969    1991    1998     1 
    1972    1991    1998     1 
     540    2001    2002     1 
    1485    2001    2002     1 
     603    2003    2004     1 
    1547    2003    2004     1 
     635    2005    2006     1 
    1578    2005    2006     1 
     539    2007    2008     1 
     862    2007    2008     1 
     602    2009    2010     1 
    1972    2009    2010     1 
     634    2011    2012     1 
     926    2011    2012     1 
     861    2013    2014     1 
    1486    2013    2014     1 
     893    2015    2016     1 
    1517    2015    2016     1 
    1971    2017    2018     1 
    1548    2017    2018     1 
     925    2019    2020     1 
    1579    2019    2020     1 
