Example system
19312
    1QTZ     O1    1   0.356   0.007   1.106
    1QTZ     O2    2   0.910   0.061   0.210
    1QTZ     O3    3   0.653   3.416   0.558
    1QTZ     O4    4   0.222   0.391   0.672
    1QTZ     O5    5   0.772   0.370   1.038
    1QTZ     O6    6   0.452   0.416   0.025
    1QTZ     O7    7   0.534   0.306   1.114
    1QTZ     O8    8   0.262   0.355   0.201
    1QTZ     O9    9   0.819   0.261   0.661
    1QTZ    O10   10   0.348   0.084   0.822
    1QTZ    O11   11   0.580   0.007   0.279
    1QTZ    O12   12   0.294   0.256   1.056
    1QTZ    O13   13   0.597   0.186   0.525
    1QTZ    O14   14   0.209   0.142   0.580
    1QTZ    O15   15   0.697   0.119   1.023
    1QTZ    O16   16   0.439   0.163   0.114
    1QTZ    O17   17   0.707   0.102   0.034
    1QTZ    O18   18   0.122   0.063   0.992
    1QTZ    O19   19   0.418   0.005   0.531
    1QTZ    O20   20   0.095   0.368   0.432
    1QTZ    O21   21   0.600   0.287   0.817
    1QTZ    O22   22   0.179   0.227   0.002
    1QTZ   Si23   23   0.865   0.167   0.084
    1QTZ   Si24   24   0.285   0.103   0.985
    1QTZ   Si25   25   0.566   0.034   0.456
    1QTZ   Si26   26   0.128   0.288   0.581
    1QTZ   Si27   27   0.644   0.273   0.988
    1QTZ   Si28   28   0.336   0.288   0.063
    1QTZ   Si29   29   0.380   0.348   1.166
    1QTZ   Si30   30   0.112   0.402   0.264
    1QTZ   Si31   31   0.656   0.288   0.650
    1QTZ   Si32   32   0.309   0.034   0.659
    1QTZ   Si33   33   0.822   0.026   1.086
    1QTZ   Si34   34   0.554   0.040   0.105
    1QTZ    O35   35   0.343   0.054   2.412
    1QTZ    O36   36   0.893   0.006   1.533
    1QTZ    O37   37   0.589   3.421   2.064
    1QTZ    O38   38   0.145   0.390   2.009
    1QTZ    O39   39   0.748   0.411   2.475
    1QTZ    O40   40   0.490   0.368   1.566
    1QTZ    O41   41   0.480   0.350   2.555
    1QTZ    O42   42   0.230   0.312   1.597
    1QTZ    O43   43   0.769   0.252   2.058
    1QTZ    O44   44   0.258   0.119   2.156
    1QTZ    O45   45   0.848   0.057   1.257
    1QTZ    O46   46   0.587   0.038   1.772
    1QTZ    O47   47   0.276   0.309   2.379
    1QTZ    O48   48   0.534   0.181   2.031
    1QTZ    O49   49   0.129   0.141   1.917
    1QTZ    O50   50   0.735   0.165   2.564
    1QTZ    O51   51   0.415   0.121   1.551
    1QTZ    O52   52   0.654   0.057   1.476
    1QTZ    O53   53   0.090   0.105   2.388
    1QTZ    O54   54   0.368   0.012   1.927
    1QTZ    O55   55   3.342   0.333   1.767
    1QTZ    O56   56   0.607   0.255   2.310
    1QTZ    O57   57   0.339   0.307   1.332
    1QTZ   Si58   58   0.807   0.099   1.423
    1QTZ   Si59   59   0.241   0.152   2.324
    1QTZ   Si60   60   0.530   0.038   1.939
    1QTZ   Si61   61   0.043   0.282   1.930
    1QTZ   Si62   62   0.632   0.287   2.485
    1QTZ   Si63   63   0.366   0.275   1.503
    1QTZ   Si64   64   0.322   0.415   2.505
    1QTZ   Si65   65   0.067   0.352   1.604
    1QTZ   Si66   66   0.621   0.282   2.133
    1QTZ   Si67   67   0.224   0.039   2.007
    1QTZ   Si68   68   0.851   0.038   2.526
    1QTZ   Si69   69   0.543   0.024   1.601
    1QTZ    O70   70   0.174   0.474   2.586
    1QTZ    O71   71   0.173   0.972   2.587
    1QTZ    O72   72   0.174   1.470   2.587
    1QTZ    O73   73   0.174   1.968   2.587
    1QTZ    O74   74   0.174   2.466   2.586
    1QTZ    O75   75   0.174   2.963   2.586
    1QTZ    O76   76   0.174   3.461   2.586
    1QTZ    O77   77   1.008   0.474   2.587
    1QTZ    O78   78   1.008   0.972   2.587
    1QTZ    O79   79   1.007   1.470   2.587
    1QTZ    O80   80   1.008   1.968   2.587
    1QTZ    O81   81   1.008   2.466   2.587
    1QTZ    O82   82   1.008   2.963   2.586
    1QTZ    O83   83   1.008   3.461   2.587
    1QTZ    O84   84   1.842   0.474   2.587
    1QTZ    O85   85   1.842   0.972   2.587
    1QTZ    O86   86   1.842   1.470   2.587
    1QTZ    O87   87   1.842   1.968   2.587
    1QTZ    O88   88   1.842   2.466   2.587
    1QTZ    O89   89   1.842   2.963   2.587
    1QTZ    O90   90   1.842   3.461   2.587
    1QTZ    O91   91   2.676   0.475   2.587
    1QTZ    O92   92   2.676   0.972   2.587
    1QTZ    O93   93   2.676   1.470   2.587
    1QTZ    O94   94   2.677   1.968   2.587
    1QTZ    O95   95   2.676   2.466   2.587
    1QTZ    O96   96   2.677   2.963   2.586
    1QTZ    O97   97   2.676   3.461   2.586
    1QTZ    O98   98   0.356   0.505   1.106
    1QTZ    O99   99   0.910   0.559   0.210
    1QTZ   O100  100   0.652   0.430   0.558
    1QTZ   O101  101   0.223   0.889   0.672
    1QTZ   O102  102   0.773   0.868   1.037
    1QTZ   O103  103   0.452   0.913   0.025
    1QTZ   O104  104   0.534   0.804   1.113
    1QTZ   O105  105   0.262   0.852   0.201
    1QTZ   O106  106   0.819   0.758   0.661
    1QTZ   O107  107   0.348   0.582   0.822
    1QTZ   O108  108   0.580   0.505   0.278
    1QTZ   O109  109   0.294   0.753   1.056
    1QTZ   O110  110   0.597   0.683   0.525
    1QTZ   O111  111   0.208   0.640   0.580
    1QTZ   O112  112   0.697   0.617   1.023
    1QTZ   O113  113   0.439   0.661   0.114
    1QTZ   O114  114   0.707   0.600   0.034
    1QTZ   O115  115   0.122   0.561   0.992
    1QTZ   O116  116   0.418   0.503   0.531
    1QTZ   O117  117   0.095   0.866   0.433
    1QTZ   O118  118   0.600   0.784   0.817
    1QTZ   O119  119   0.179   0.725   0.003
    1QTZ  Si120  120   0.865   0.665   0.084
    1QTZ  Si121  121   0.285   0.601   0.985
    1QTZ  Si122  122   0.566   0.532   0.456
    1QTZ  Si123  123   0.128   0.786   0.582
    1QTZ  Si124  124   0.644   0.770   0.987
    1QTZ  Si125  125   0.336   0.786   0.063
    1QTZ  Si126  126   0.380   0.846   1.166
    1QTZ  Si127  127   0.112   0.900   0.265
    1QTZ  Si128  128   0.656   0.785   0.650
    1QTZ  Si129  129   0.309   0.532   0.659
    1QTZ  Si130  130   0.821   0.524   1.087
    1QTZ  Si131  131   0.554   0.537   0.105
    1QTZ   O132  132   0.344   0.552   2.413
    1QTZ   O133  133   0.893   0.504   1.533
    1QTZ   O134  134   0.591   0.434   2.064
    1QTZ   O135  135   0.144   0.887   2.009
    1QTZ   O136  136   0.748   0.909   2.476
    1QTZ   O137  137   0.490   0.866   1.566
    1QTZ   O138  138   0.480   0.848   2.556
    1QTZ   O139  139   0.231   0.809   1.597
    1QTZ   O140  140   0.768   0.753   2.060
    1QTZ   O141  141   0.258   0.616   2.157
    1QTZ   O142  142   0.848   0.555   1.258
    1QTZ   O143  143   0.587   0.536   1.772
    1QTZ   O144  144   0.276   0.807   2.379
    1QTZ   O145  145   0.534   0.678   2.031
    1QTZ   O146  146   0.131   0.638   1.917
    1QTZ   O147  147   0.734   0.663   2.565
    1QTZ   O148  148   0.415   0.619   1.552
    1QTZ   O149  149   0.654   0.554   1.476
    1QTZ   O150  150   0.090   0.602   2.388
    1QTZ   O151  151   0.369   0.508   1.929
    1QTZ   O152  152   3.342   0.829   1.767
    1QTZ   O153  153   0.606   0.753   2.311
    1QTZ   O154  154   0.340   0.804   1.332
    1QTZ  Si155  155   0.807   0.597   1.424
    1QTZ  Si156  156   0.241   0.650   2.325
    1QTZ  Si157  157   0.532   0.536   1.940
    1QTZ  Si158  158   0.044   0.779   1.929
    1QTZ  Si159  159   0.632   0.785   2.485
    1QTZ  Si160  160   0.366   0.773   1.503
    1QTZ  Si161  161   0.321   0.913   2.506
    1QTZ  Si162  162   0.068   0.849   1.604
    1QTZ  Si163  163   0.620   0.781   2.134
    1QTZ  Si164  164   0.225   0.536   2.008
    1QTZ  Si165  165   0.851   0.536   2.526
    1QTZ  Si166  166   0.544   0.521   1.602
    1QTZ   O167  167   0.356   1.002   1.106
    1QTZ   O168  168   0.910   1.057   0.210
    1QTZ   O169  169   0.653   0.927   0.559
    1QTZ   O170  170   0.221   1.386   0.672
    1QTZ   O171  171   0.773   1.365   1.038
    1QTZ   O172  172   0.452   1.411   0.025
    1QTZ   O173  173   0.534   1.302   1.114
    1QTZ   O174  174   0.262   1.350   0.201
    1QTZ   O175  175   0.820   1.257   0.662
    1QTZ   O176  176   0.348   1.080   0.822
    1QTZ   O177  177   0.580   1.003   0.279
    1QTZ   O178  178   0.294   1.251   1.057
    1QTZ   O179  179   0.598   1.181   0.525
    1QTZ   O180  180   0.208   1.138   0.580
    1QTZ   O181  181   0.697   1.114   1.024
    1QTZ   O182  182   0.439   1.159   0.114
    1QTZ   O183  183   0.707   1.098   0.034
    1QTZ   O184  184   0.122   1.059   0.992
    1QTZ   O185  185   0.418   1.001   0.531
    1QTZ   O186  186   0.094   1.364   0.432
    1QTZ   O187  187   0.600   1.282   0.817
    1QTZ   O188  188   0.179   1.222   0.003
    1QTZ  Si189  189   0.865   1.163   0.084
    1QTZ  Si190  190   0.285   1.099   0.985
    1QTZ  Si191  191   0.566   1.030   0.456
    1QTZ  Si192  192   0.127   1.284   0.582
    1QTZ  Si193  193   0.644   1.268   0.988
    1QTZ  Si194  194   0.336   1.283   0.063
    1QTZ  Si195  195   0.380   1.344   1.167
    1QTZ  Si196  196   0.112   1.397   0.265
    1QTZ  Si197  197   0.657   1.283   0.651
    1QTZ  Si198  198   0.309   1.030   0.660
    1QTZ  Si199  199   0.821   1.021   1.087
    1QTZ  Si200  200   0.554   1.035   0.105
    1QTZ   O201  201   0.343   1.049   2.413
    1QTZ   O202  202   0.893   1.001   1.534
    1QTZ   O203  203   0.588   0.932   2.065
    1QTZ   O204  204   0.145   1.385   2.009
    1QTZ   O205  205   0.748   1.407   2.475
    1QTZ   O206  206   0.490   1.363   1.567
    1QTZ   O207  207   0.480   1.345   2.555
    1QTZ   O208  208   0.230   1.307   1.598
    1QTZ   O209  209   0.769   1.247   2.058
    1QTZ   O210  210   0.257   1.114   2.157
    1QTZ   O211  211   0.848   1.052   1.258
    1QTZ   O212  212   0.587   1.033   1.773
    1QTZ   O213  213   0.276   1.305   2.379
    1QTZ   O214  214   0.534   1.176   2.031
    1QTZ   O215  215   0.128   1.136   1.918
    1QTZ   O216  216   0.735   1.161   2.564
    1QTZ   O217  217   0.414   1.116   1.552
    1QTZ   O218  218   0.653   1.053   1.476
    1QTZ   O219  219   0.090   1.100   2.388
    1QTZ   O220  220   0.367   1.008   1.928
    1QTZ   O221  221   3.341   1.328   1.768
    1QTZ   O222  222   0.607   1.250   2.311
    1QTZ   O223  223   0.339   1.302   1.333
    1QTZ  Si224  224   0.807   1.094   1.423
    1QTZ  Si225  225   0.240   1.148   2.325
    1QTZ  Si226  226   0.530   1.034   1.939
    1QTZ  Si227  227   0.043   1.278   1.930
    1QTZ  Si228  228   0.632   1.283   2.485
    1QTZ  Si229  229   0.365   1.270   1.503
    1QTZ  Si230  230   0.322   1.410   2.505
    1QTZ  Si231  231   0.067   1.347   1.605
    1QTZ  Si232  232   0.621   1.278   2.133
    1QTZ  Si233  233   0.224   1.034   2.008
    1QTZ  Si234  234   0.851   1.033   2.526
    1QTZ  Si235  235   0.543   1.019   1.602
    1QTZ   O236  236   0.356   1.500   1.106
    1QTZ   O237  237   0.910   1.555   0.211
    1QTZ   O238  238   0.653   1.425   0.559
    1QTZ   O239  239   0.224   1.884   0.672
    1QTZ   O240  240   0.773   1.863   1.037
    1QTZ   O241  241   0.452   1.909   0.025
    1QTZ   O242  242   0.534   1.799   1.113
    1QTZ   O243  243   0.263   1.848   0.201
    1QTZ   O244  244   0.818   1.753   0.661
    1QTZ   O245  245   0.348   1.577   0.822
    1QTZ   O246  246   0.580   1.500   0.279
    1QTZ   O247  247   0.294   1.749   1.056
    1QTZ   O248  248   0.596   1.679   0.525
    1QTZ   O249  249   0.209   1.635   0.580
    1QTZ   O250  250   0.698   1.612   1.023
    1QTZ   O251  251   0.439   1.656   0.114
    1QTZ   O252  252   0.707   1.595   0.034
    1QTZ   O253  253   0.122   1.556   0.992
    1QTZ   O254  254   0.418   1.498   0.531
    1QTZ   O255  255   0.095   1.862   0.433
    1QTZ   O256  256   0.600   1.780   0.817
    1QTZ   O257  257   0.179   1.720   0.003
    1QTZ  Si258  258   0.865   1.660   0.084
    1QTZ  Si259  259   0.285   1.596   0.985
    1QTZ  Si260  260   0.566   1.527   0.456
    1QTZ  Si261  261   0.129   1.782   0.582
    1QTZ  Si262  262   0.644   1.766   0.987
    1QTZ  Si263  263   0.336   1.781   0.063
    1QTZ  Si264  264   0.380   1.841   1.166
    1QTZ  Si265  265   0.112   1.895   0.265
    1QTZ  Si266  266   0.656   1.780   0.650
    1QTZ  Si267  267   0.309   1.527   0.660
    1QTZ  Si268  268   0.822   1.519   1.087
    1QTZ  Si269  269   0.554   1.532   0.105
    1QTZ   O270  270   0.344   1.547   2.413
    1QTZ   O271  271   0.893   1.499   1.533
    1QTZ   O272  272   0.592   1.430   2.064
    1QTZ   O273  273   0.144   1.883   2.009
    1QTZ   O274  274   0.748   1.904   2.475
    1QTZ   O275  275   0.490   1.861   1.566
    1QTZ   O276  276   0.480   1.844   2.556
    1QTZ   O277  277   0.231   1.805   1.597
    1QTZ   O278  278   0.769   1.749   2.060
    1QTZ   O279  279   0.258   1.612   2.157
    1QTZ   O280  280   0.848   1.551   1.257
    1QTZ   O281  281   0.588   1.531   1.772
    1QTZ   O282  282   0.276   1.802   2.379
    1QTZ   O283  283   0.535   1.674   2.031
    1QTZ   O284  284   0.131   1.634   1.917
    1QTZ   O285  285   0.734   1.659   2.565
    1QTZ   O286  286   0.415   1.614   1.551
    1QTZ   O287  287   0.654   1.549   1.476
    1QTZ   O288  288   0.091   1.598   2.388
    1QTZ   O289  289   0.369   1.504   1.929
    1QTZ   O290  290   3.342   1.825   1.767
    1QTZ   O291  291   0.606   1.749   2.311
    1QTZ   O292  292   0.340   1.800   1.332
    1QTZ  Si293  293   0.807   1.592   1.423
    1QTZ  Si294  294   0.241   1.645   2.325
    1QTZ  Si295  295   0.532   1.531   1.939
    1QTZ  Si296  296   0.044   1.774   1.929
    1QTZ  Si297  297   0.632   1.781   2.485
    1QTZ  Si298  298   0.366   1.768   1.503
    1QTZ  Si299  299   0.322   1.908   2.506
    1QTZ  Si300  300   0.068   1.845   1.604
    1QTZ  Si301  301   0.620   1.776   2.133
    1QTZ  Si302  302   0.226   1.531   2.008
    1QTZ  Si303  303   0.851   1.531   2.526
    1QTZ  Si304  304   0.544   1.517   1.602
    1QTZ   O305  305   0.357   1.998   1.106
    1QTZ   O306  306   0.911   2.052   0.210
    1QTZ   O307  307   0.653   1.923   0.558
    1QTZ   O308  308   0.222   2.382   0.672
    1QTZ   O309  309   0.773   2.361   1.038
    1QTZ   O310  310   0.452   2.406   0.025
    1QTZ   O311  311   0.534   2.297   1.113
    1QTZ   O312  312   0.262   2.345   0.201
    1QTZ   O313  313   0.820   2.253   0.662
    1QTZ   O314  314   0.348   2.076   0.822
    1QTZ   O315  315   0.581   1.998   0.279
    1QTZ   O316  316   0.294   2.246   1.056
    1QTZ   O317  317   0.599   2.177   0.525
    1QTZ   O318  318   0.208   2.133   0.580
    1QTZ   O319  319   0.697   2.110   1.023
    1QTZ   O320  320   0.439   2.154   0.114
    1QTZ   O321  321   0.707   2.093   0.034
    1QTZ   O322  322   0.123   2.054   0.992
    1QTZ   O323  323   0.419   1.998   0.530
    1QTZ   O324  324   0.095   2.359   0.432
    1QTZ   O325  325   0.601   2.278   0.817
    1QTZ   O326  326   0.179   2.217   0.003
    1QTZ  Si327  327   0.865   2.158   0.084
    1QTZ  Si328  328   0.286   2.094   0.985
    1QTZ  Si329  329   0.567   2.025   0.456
    1QTZ  Si330  330   0.128   2.279   0.581
    1QTZ  Si331  331   0.644   2.264   0.987
    1QTZ  Si332  332   0.336   2.279   0.063
    1QTZ  Si333  333   0.380   2.339   1.166
    1QTZ  Si334  334   0.112   2.393   0.264
    1QTZ  Si335  335   0.657   2.279   0.650
    1QTZ  Si336  336   0.310   2.026   0.659
    1QTZ  Si337  337   0.821   2.017   1.086
    1QTZ  Si338  338   0.555   2.030   0.105
    1QTZ   O339  339   0.343   2.045   2.413
    1QTZ   O340  340   0.893   1.997   1.533
    1QTZ   O341  341   0.588   1.928   2.065
    1QTZ   O342  342   0.145   2.381   2.009
    1QTZ   O343  343   0.748   2.402   2.475
    1QTZ   O344  344   0.490   2.359   1.566
    1QTZ   O345  345   0.480   2.341   2.555
    1QTZ   O346  346   0.230   2.302   1.597
    1QTZ   O347  347   0.769   2.244   2.058
    1QTZ   O348  348   0.257   2.109   2.157
    1QTZ   O349  349   0.848   2.048   1.257
    1QTZ   O350  350   0.587   2.029   1.772
    1QTZ   O351  351   0.276   2.300   2.379
    1QTZ   O352  352   0.534   2.172   2.030
    1QTZ   O353  353   0.129   2.132   1.917
    1QTZ   O354  354   0.735   2.157   2.564
    1QTZ   O355  355   0.415   2.112   1.551
    1QTZ   O356  356   0.654   2.048   1.476
    1QTZ   O357  357   0.090   2.096   2.388
    1QTZ   O358  358   0.367   2.003   1.927
    1QTZ   O359  359   3.342   2.324   1.767
    1QTZ   O360  360   0.607   2.246   2.310
    1QTZ   O361  361   0.339   2.298   1.332
    1QTZ  Si362  362   0.807   2.090   1.423
    1QTZ  Si363  363   0.240   2.143   2.324
    1QTZ  Si364  364   0.530   2.029   1.939
    1QTZ  Si365  365   0.044   2.273   1.930
    1QTZ  Si366  366   0.632   2.279   2.484
    1QTZ  Si367  367   0.366   2.266   1.503
    1QTZ  Si368  368   0.322   2.406   2.505
    1QTZ  Si369  369   0.067   2.343   1.605
    1QTZ  Si370  370   0.621   2.273   2.133
    1QTZ  Si371  371   0.224   2.029   2.007
    1QTZ  Si372  372   0.851   2.029   2.526
    1QTZ  Si373  373   0.543   2.015   1.602
    1QTZ   O374  374   0.356   2.496   1.106
    1QTZ   O375  375   0.911   2.550   0.210
    1QTZ   O376  376   0.653   2.421   0.558
    1QTZ   O377  377   0.224   2.880   0.671
    1QTZ   O378  378   0.773   2.859   1.037
    1QTZ   O379  379   0.452   2.904   0.024
    1QTZ   O380  380   0.534   2.794   1.113
    1QTZ   O381  381   0.263   2.843   0.200
    1QTZ   O382  382   0.818   2.749   0.660
    1QTZ   O383  383   0.348   2.573   0.822
    1QTZ   O384  384   0.580   2.495   0.278
    1QTZ   O385  385   0.294   2.744   1.056
    1QTZ   O386  386   0.596   2.674   0.525
    1QTZ   O387  387   0.209   2.631   0.579
    1QTZ   O388  388   0.698   2.608   1.022
    1QTZ   O389  389   0.439   2.652   0.114
    1QTZ   O390  390   0.707   2.591   0.034
    1QTZ   O391  391   0.123   2.552   0.992
    1QTZ   O392  392   0.418   2.493   0.531
    1QTZ   O393  393   0.095   2.857   0.432
    1QTZ   O394  394   0.600   2.776   0.816
    1QTZ   O395  395   0.179   2.715   0.002
    1QTZ  Si396  396   0.865   2.656   0.084
    1QTZ  Si397  397   0.286   2.592   0.985
    1QTZ  Si398  398   0.566   2.522   0.456
    1QTZ  Si399  399   0.129   2.777   0.581
    1QTZ  Si400  400   0.644   2.762   0.987
    1QTZ  Si401  401   0.336   2.776   0.063
    1QTZ  Si402  402   0.380   2.837   1.165
    1QTZ  Si403  403   0.112   2.891   0.264
    1QTZ  Si404  404   0.656   2.776   0.649
    1QTZ  Si405  405   0.309   2.522   0.659
    1QTZ  Si406  406   0.822   2.515   1.086
    1QTZ  Si407  407   0.555   2.528   0.104
    1QTZ   O408  408   0.344   2.543   2.412
    1QTZ   O409  409   0.894   2.495   1.533
    1QTZ   O410  410   0.591   2.425   2.064
    1QTZ   O411  411   0.145   2.878   2.009
    1QTZ   O412  412   0.748   2.900   2.475
    1QTZ   O413  413   0.490   2.857   1.566
    1QTZ   O414  414   0.480   2.839   2.555
    1QTZ   O415  415   0.231   2.800   1.597
    1QTZ   O416  416   0.769   2.743   2.059
    1QTZ   O417  417   0.258   2.607   2.156
    1QTZ   O418  418   0.848   2.547   1.257
    1QTZ   O419  419   0.587   2.527   1.772
    1QTZ   O420  420   0.276   2.798   2.379
    1QTZ   O421  421   0.535   2.669   2.030
    1QTZ   O422  422   0.131   2.629   1.917
    1QTZ   O423  423   0.735   2.654   2.564
    1QTZ   O424  424   0.415   2.610   1.551
    1QTZ   O425  425   0.654   2.545   1.475
    1QTZ   O426  426   0.091   2.594   2.387
    1QTZ   O427  427   0.369   2.500   1.928
    1QTZ   O428  428   3.342   2.821   1.767
    1QTZ   O429  429   0.606   2.744   2.310
    1QTZ   O430  430   0.340   2.796   1.331
    1QTZ  Si431  431   0.807   2.588   1.423
    1QTZ  Si432  432   0.241   2.641   2.324
    1QTZ  Si433  433   0.531   2.527   1.939
    1QTZ  Si434  434   0.044   2.771   1.929
    1QTZ  Si435  435   0.632   2.776   2.484
    1QTZ  Si436  436   0.366   2.764   1.502
    1QTZ  Si437  437   0.322   2.904   2.505
    1QTZ  Si438  438   0.068   2.840   1.604
    1QTZ  Si439  439   0.621   2.771   2.133
    1QTZ  Si440  440   0.225   2.527   2.007
    1QTZ  Si441  441   0.851   2.527   2.526
    1QTZ  Si442  442   0.544   2.513   1.601
    1QTZ   O443  443   0.357   2.994   1.105
    1QTZ   O444  444   0.911   3.048   0.210
    1QTZ   O445  445   0.653   2.919   0.558
    1QTZ   O446  446   0.222   3.377   0.672
    1QTZ   O447  447   0.773   3.357   1.037
    1QTZ   O448  448   0.452   3.402   0.025
    1QTZ   O449  449   0.534   3.293   1.113
    1QTZ   O450  450   0.262   3.341   0.201
    1QTZ   O451  451   0.820   3.247   0.661
    1QTZ   O452  452   0.348   3.071   0.821
    1QTZ   O453  453   0.581   2.994   0.278
    1QTZ   O454  454   0.294   3.242   1.056
    1QTZ   O455  455   0.598   3.172   0.524
    1QTZ   O456  456   0.208   3.129   0.579
    1QTZ   O457  457   0.697   3.106   1.023
    1QTZ   O458  458   0.439   3.150   0.113
    1QTZ   O459  459   0.707   3.089   0.033
    1QTZ   O460  460   0.123   3.050   0.991
    1QTZ   O461  461   0.418   2.993   0.530
    1QTZ   O462  462   0.095   3.355   0.432
    1QTZ   O463  463   0.600   3.273   0.816
    1QTZ   O464  464   0.179   3.213   0.002
    1QTZ  Si465  465   0.865   3.154   0.083
    1QTZ  Si466  466   0.286   3.090   0.984
    1QTZ  Si467  467   0.566   3.021   0.455
    1QTZ  Si468  468   0.128   3.275   0.581
    1QTZ  Si469  469   0.644   3.259   0.987
    1QTZ  Si470  470   0.336   3.274   0.063
    1QTZ  Si471  471   0.380   3.335   1.166
    1QTZ  Si472  472   0.112   3.388   0.264
    1QTZ  Si473  473   0.657   3.274   0.650
    1QTZ  Si474  474   0.309   3.021   0.659
    1QTZ  Si475  475   0.821   3.013   1.086
    1QTZ  Si476  476   0.555   3.026   0.104
    1QTZ   O477  477   0.344   3.040   2.412
    1QTZ   O478  478   0.893   2.992   1.533
    1QTZ   O479  479   0.590   2.923   2.064
    1QTZ   O480  480   0.145   3.376   2.009
    1QTZ   O481  481   0.748   3.398   2.475
    1QTZ   O482  482   0.490   3.354   1.566
    1QTZ   O483  483   0.480   3.337   2.555
    1QTZ   O484  484   0.231   3.298   1.597
    1QTZ   O485  485   0.769   3.240   2.058
    1QTZ   O486  486   0.258   3.105   2.156
    1QTZ   O487  487   0.848   3.044   1.257
    1QTZ   O488  488   0.587   3.024   1.772
    1QTZ   O489  489   0.276   3.296   2.379
    1QTZ   O490  490   0.534   3.167   2.030
    1QTZ   O491  491   0.130   3.127   1.917
    1QTZ   O492  492   0.735   3.152   2.564
    1QTZ   O493  493   0.415   3.107   1.551
    1QTZ   O494  494   0.654   3.043   1.476
    1QTZ   O495  495   0.090   3.091   2.388
    1QTZ   O496  496   0.368   2.998   1.928
    1QTZ   O497  497   3.342   3.319   1.767
    1QTZ   O498  498   0.606   3.242   2.310
    1QTZ   O499  499   0.340   3.293   1.332
    1QTZ  Si500  500   0.807   3.085   1.423
    1QTZ  Si501  501   0.241   3.139   2.324
    1QTZ  Si502  502   0.531   3.025   1.939
    1QTZ  Si503  503   0.044   3.268   1.929
    1QTZ  Si504  504   0.632   3.274   2.484
    1QTZ  Si505  505   0.366   3.261   1.502
    1QTZ  Si506  506   0.322   3.402   2.505
    1QTZ  Si507  507   0.067   3.338   1.604
    1QTZ  Si508  508   0.621   3.269   2.133
    1QTZ  Si509  509   0.225   3.025   2.007
    1QTZ  Si510  510   0.851   3.025   2.526
    1QTZ  Si511  511   0.544   3.010   1.601
    1QTZ   O512  512   1.191   0.007   1.106
    1QTZ   O513  513   1.745   0.061   0.210
    1QTZ   O514  514   1.487   3.416   0.558
    1QTZ   O515  515   1.056   0.391   0.673
    1QTZ   O516  516   1.607   0.370   1.038
    1QTZ   O517  517   1.286   0.416   0.026
    1QTZ   O518  518   1.368   0.306   1.114
    1QTZ   O519  519   1.096   0.355   0.201
    1QTZ   O520  520   1.654   0.261   0.661
    1QTZ   O521  521   1.182   0.085   0.822
    1QTZ   O522  522   1.415   0.007   0.279
    1QTZ   O523  523   1.128   0.255   1.056
    1QTZ   O524  524   0.843   0.304   0.177
    1QTZ   O525  525   1.432   0.186   0.525
    1QTZ   O526  526   1.043   0.142   0.580
    1QTZ   O527  527   1.531   0.119   1.024
    1QTZ   O528  528   1.273   0.163   0.114
    1QTZ   O529  529   1.541   0.102   0.034
    1QTZ   O530  530   0.957   0.063   0.992
    1QTZ   O531  531   1.252   0.006   0.531
    1QTZ   O532  532   0.929   0.369   0.433
    1QTZ   O533  533   1.434   0.287   0.817
    1QTZ   O534  534   1.013   0.227   0.003
    1QTZ  Si535  535   1.699   0.167   0.084
    1QTZ  Si536  536   1.120   0.103   0.985
    1QTZ  Si537  537   1.400   0.034   0.456
    1QTZ  Si538  538   0.962   0.289   0.582
    1QTZ  Si539  539   1.478   0.273   0.988
    1QTZ  Si540  540   1.170   0.288   0.064
    1QTZ  Si541  541   1.214   0.348   1.166
    1QTZ  Si542  542   0.946   0.402   0.265
    1QTZ  Si543  543   1.491   0.287   0.650
    1QTZ  Si544  544   1.143   0.035   0.660
    1QTZ  Si545  545   1.656   0.026   1.087
    1QTZ  Si546  546   1.389   0.040   0.105
    1QTZ   O547  547   1.178   0.054   2.413
    1QTZ   O548  548   1.728   0.006   1.533
    1QTZ   O549  549   1.425   3.421   2.064
    1QTZ   O550  550   0.979   0.389   2.009
    1QTZ   O551  551   1.582   0.411   2.476
    1QTZ   O552  552   1.324   0.368   1.566
    1QTZ   O553  553   1.314   0.350   2.556
    1QTZ   O554  554   1.065   0.311   1.598
    1QTZ   O555  555   1.603   0.255   2.059
    1QTZ   O556  556   1.092   0.118   2.157
    1QTZ   O557  557   1.682   0.057   1.258
    1QTZ   O558  558   1.422   0.038   1.773
    1QTZ   O559  559   1.110   0.309   2.380
    1QTZ   O560  560   0.831   0.255   1.483
    1QTZ   O561  561   1.369   0.181   2.031
    1QTZ   O562  562   0.965   0.140   1.917
    1QTZ   O563  563   1.569   0.166   2.565
    1QTZ   O564  564   1.249   0.121   1.552
    1QTZ   O565  565   1.488   0.057   1.476
    1QTZ   O566  566   0.925   0.105   2.388
    1QTZ   O567  567   1.203   0.011   1.929
    1QTZ   O568  568   0.840   0.332   1.767
    1QTZ   O569  569   1.440   0.255   2.311
    1QTZ   O570  570   1.174   0.306   1.332
    1QTZ  Si571  571   1.642   0.099   1.424
    1QTZ  Si572  572   1.075   0.152   2.325
    1QTZ  Si573  573   1.366   0.038   1.940
    1QTZ  Si574  574   0.878   0.281   1.930
    1QTZ  Si575  575   1.466   0.288   2.485
    1QTZ  Si576  576   1.200   0.275   1.503
    1QTZ  Si577  577   1.156   0.415   2.506
    1QTZ  Si578  578   0.902   0.351   1.605
    1QTZ  Si579  579   1.455   0.283   2.134
    1QTZ  Si580  580   1.060   0.038   2.008
    1QTZ  Si581  581   1.685   0.038   2.526
    1QTZ  Si582  582   1.378   0.024   1.602
    1QTZ   O583  583   1.191   0.505   1.107
    1QTZ   O584  584   1.745   0.559   0.211
    1QTZ   O585  585   1.487   0.430   0.559
    1QTZ   O586  586   1.056   0.889   0.673
    1QTZ   O587  587   1.607   0.868   1.039
    1QTZ   O588  588   1.286   0.913   0.025
    1QTZ   O589  589   1.368   0.804   1.114
    1QTZ   O590  590   1.096   0.852   0.201
    1QTZ   O591  591   1.653   0.759   0.662
    1QTZ   O592  592   1.182   0.582   0.823
    1QTZ   O593  593   1.414   0.505   0.279
    1QTZ   O594  594   1.128   0.753   1.057
    1QTZ   O595  595   0.843   0.801   0.177
    1QTZ   O596  596   1.432   0.684   0.526
    1QTZ   O597  597   1.043   0.640   0.580
    1QTZ   O598  598   1.531   0.617   1.024
    1QTZ   O599  599   1.273   0.661   0.115
    1QTZ   O600  600   1.541   0.600   0.035
    1QTZ   O601  601   0.957   0.561   0.992
    1QTZ   O602  602   1.253   0.503   0.532
    1QTZ   O603  603   0.929   0.866   0.433
    1QTZ   O604  604   1.434   0.785   0.818
    1QTZ   O605  605   1.013   0.724   0.003
    1QTZ  Si606  606   1.699   0.665   0.084
    1QTZ  Si607  607   1.120   0.601   0.985
    1QTZ  Si608  608   1.400   0.532   0.457
    1QTZ  Si609  609   0.962   0.786   0.582
    1QTZ  Si610  610   1.478   0.771   0.988
    1QTZ  Si611  611   1.170   0.786   0.064
    1QTZ  Si612  612   1.214   0.846   1.167
    1QTZ  Si613  613   0.946   0.900   0.265
    1QTZ  Si614  614   1.491   0.785   0.651
    1QTZ  Si615  615   1.143   0.532   0.660
    1QTZ  Si616  616   1.656   0.524   1.087
    1QTZ  Si617  617   1.389   0.537   0.105
    1QTZ   O618  618   1.177   0.551   2.413
    1QTZ   O619  619   1.727   0.504   1.534
    1QTZ   O620  620   1.423   0.435   2.065
    1QTZ   O621  621   0.979   0.887   2.010
    1QTZ   O622  622   1.582   0.909   2.476
    1QTZ   O623  623   1.324   0.865   1.567
    1QTZ   O624  624   1.314   0.848   2.556
    1QTZ   O625  625   1.064   0.809   1.598
    1QTZ   O626  626   1.603   0.750   2.059
    1QTZ   O627  627   1.092   0.616   2.157
    1QTZ   O628  628   1.682   0.555   1.258
    1QTZ   O629  629   1.421   0.536   1.773
    1QTZ   O630  630   1.110   0.807   2.380
    1QTZ   O631  631   0.830   0.753   1.484
    1QTZ   O632  632   1.368   0.679   2.031
    1QTZ   O633  633   0.963   0.638   1.918
    1QTZ   O634  634   1.569   0.664   2.565
    1QTZ   O635  635   1.249   0.619   1.552
    1QTZ   O636  636   1.488   0.555   1.476
    1QTZ   O637  637   0.924   0.603   2.389
    1QTZ   O638  638   1.201   0.510   1.928
    1QTZ   O639  639   0.839   0.830   1.768
    1QTZ   O640  640   1.441   0.753   2.311
    1QTZ   O641  641   1.174   0.805   1.333
    1QTZ  Si642  642   1.641   0.597   1.424
    1QTZ  Si643  643   1.075   0.650   2.325
    1QTZ  Si644  644   1.364   0.536   1.940
    1QTZ  Si645  645   0.877   0.780   1.931
    1QTZ  Si646  646   1.467   0.785   2.485
    1QTZ  Si647  647   1.200   0.773   1.504
    1QTZ  Si648  648   1.156   0.912   2.506
    1QTZ  Si649  649   0.901   0.849   1.605
    1QTZ  Si650  650   1.456   0.780   2.134
    1QTZ  Si651  651   1.058   0.536   2.008
    1QTZ  Si652  652   1.685   0.536   2.527
    1QTZ  Si653  653   1.378   0.522   1.602
    1QTZ   O654  654   1.191   1.002   1.107
    1QTZ   O655  655   1.744   1.057   0.211
    1QTZ   O656  656   1.487   0.928   0.559
    1QTZ   O657  657   1.058   1.386   0.672
    1QTZ   O658  658   1.607   1.366   1.038
    1QTZ   O659  659   1.286   1.411   0.025
    1QTZ   O660  660   1.368   1.301   1.114
    1QTZ   O661  661   1.097   1.350   0.202
    1QTZ   O662  662   1.653   1.256   0.661
    1QTZ   O663  663   1.182   1.079   0.823
    1QTZ   O664  664   1.414   1.002   0.279
    1QTZ   O665  665   1.128   1.251   1.057
    1QTZ   O666  666   0.843   1.299   0.177
    1QTZ   O667  667   1.431   1.181   0.525
    1QTZ   O668  668   1.043   1.138   0.581
    1QTZ   O669  669   1.532   1.115   1.024
    1QTZ   O670  670   1.273   1.159   0.115
    1QTZ   O671  671   1.541   1.098   0.035
    1QTZ   O672  672   0.957   1.059   0.992
    1QTZ   O673  673   1.252   1.000   0.532
    1QTZ   O674  674   0.929   1.364   0.433
    1QTZ   O675  675   1.434   1.282   0.817
    1QTZ   O676  676   1.013   1.222   0.003
    1QTZ  Si677  677   1.699   1.163   0.084
    1QTZ  Si678  678   1.120   1.099   0.985
    1QTZ  Si679  679   1.400   1.029   0.457
    1QTZ  Si680  680   0.963   1.284   0.582
    1QTZ  Si681  681   1.478   1.268   0.988
    1QTZ  Si682  682   1.170   1.283   0.064
    1QTZ  Si683  683   1.215   1.344   1.166
    1QTZ  Si684  684   0.946   1.397   0.265
    1QTZ  Si685  685   1.490   1.283   0.650
    1QTZ  Si686  686   1.143   1.029   0.660
    1QTZ  Si687  687   1.656   1.022   1.087
    1QTZ  Si688  688   1.388   1.035   0.105
    1QTZ   O689  689   1.178   1.049   2.413
    1QTZ   O690  690   1.728   1.001   1.534
    1QTZ   O691  691   1.426   0.932   2.065
    1QTZ   O692  692   0.978   1.385   2.009
    1QTZ   O693  693   1.582   1.407   2.476
    1QTZ   O694  694   1.325   1.363   1.566
    1QTZ   O695  695   1.314   1.346   2.556
    1QTZ   O696  696   1.065   1.307   1.598
    1QTZ   O697  697   1.603   1.251   2.060
    1QTZ   O698  698   1.092   1.114   2.157
    1QTZ   O699  699   1.682   1.053   1.258
    1QTZ   O700  700   1.422   1.034   1.773
    1QTZ   O701  701   1.110   1.305   2.380
    1QTZ   O702  702   0.831   1.251   1.483
    1QTZ   O703  703   1.369   1.176   2.032
    1QTZ   O704  704   0.966   1.136   1.917
    1QTZ   O705  705   1.569   1.162   2.565
    1QTZ   O706  706   1.249   1.117   1.552
    1QTZ   O707  707   1.488   1.051   1.476
    1QTZ   O708  708   0.925   1.100   2.388
    1QTZ   O709  709   1.203   1.006   1.929
    1QTZ   O710  710   0.840   1.327   1.767
    1QTZ   O711  711   1.440   1.251   2.311
    1QTZ   O712  712   1.174   1.302   1.332
    1QTZ  Si713  713   1.641   1.094   1.424
    1QTZ  Si714  714   1.075   1.147   2.325
    1QTZ  Si715  715   1.366   1.034   1.940
    1QTZ  Si716  716   0.878   1.276   1.930
    1QTZ  Si717  717   1.466   1.283   2.485
    1QTZ  Si718  718   1.201   1.271   1.503
    1QTZ  Si719  719   1.155   1.411   2.506
    1QTZ  Si720  720   0.902   1.347   1.605
    1QTZ  Si721  721   1.454   1.279   2.134
    1QTZ  Si722  722   1.060   1.033   2.008
    1QTZ  Si723  723   1.685   1.034   2.527
    1QTZ  Si724  724   1.378   1.019   1.603
    1QTZ   O725  725   1.191   1.500   1.106
    1QTZ   O726  726   1.745   1.555   0.211
    1QTZ   O727  727   1.487   1.425   0.559
    1QTZ   O728  728   1.055   1.884   0.673
    1QTZ   O729  729   1.607   1.863   1.038
    1QTZ   O730  730   1.286   1.908   0.025
    1QTZ   O731  731   1.368   1.800   1.114
    1QTZ   O732  732   1.096   1.848   0.201
    1QTZ   O733  733   1.654   1.755   0.662
    1QTZ   O734  734   1.182   1.578   0.822
    1QTZ   O735  735   1.415   1.500   0.279
    1QTZ   O736  736   1.128   1.749   1.057
    1QTZ   O737  737   0.843   1.797   0.177
    1QTZ   O738  738   1.433   1.679   0.525
    1QTZ   O739  739   1.043   1.635   0.580
    1QTZ   O740  740   1.531   1.612   1.024
    1QTZ   O741  741   1.273   1.656   0.115
    1QTZ   O742  742   1.541   1.596   0.034
    1QTZ   O743  743   0.957   1.556   0.992
    1QTZ   O744  744   1.253   1.500   0.531
    1QTZ   O745  745   0.929   1.862   0.432
    1QTZ   O746  746   1.435   1.780   0.818
    1QTZ   O747  747   1.013   1.719   0.003
    1QTZ  Si748  748   1.699   1.660   0.084
    1QTZ  Si749  749   1.120   1.597   0.985
    1QTZ  Si750  750   1.401   1.528   0.457
    1QTZ  Si751  751   0.962   1.781   0.582
    1QTZ  Si752  752   1.478   1.766   0.988
    1QTZ  Si753  753   1.170   1.781   0.063
    1QTZ  Si754  754   1.214   1.842   1.167
    1QTZ  Si755  755   0.946   1.895   0.265
    1QTZ  Si756  756   1.491   1.781   0.651
    1QTZ  Si757  757   1.144   1.528   0.660
    1QTZ  Si758  758   1.655   1.519   1.087
    1QTZ  Si759  759   1.389   1.533   0.105
    1QTZ   O760  760   1.177   1.547   2.413
    1QTZ   O761  761   1.727   1.499   1.534
    1QTZ   O762  762   1.422   1.430   2.065
    1QTZ   O763  763   0.980   1.883   2.009
    1QTZ   O764  764   1.582   1.905   2.475
    1QTZ   O765  765   1.324   1.861   1.567
    1QTZ   O766  766   1.314   1.843   2.555
    1QTZ   O767  767   1.064   1.805   1.598
    1QTZ   O768  768   1.603   1.746   2.058
    1QTZ   O769  769   1.091   1.611   2.157
    1QTZ   O770  770   1.682   1.550   1.258
    1QTZ   O771  771   1.421   1.531   1.773
    1QTZ   O772  772   1.110   1.802   2.379
    1QTZ   O773  773   0.830   1.748   1.484
    1QTZ   O774  774   1.368   1.674   2.031
    1QTZ   O775  775   0.963   1.634   1.918
    1QTZ   O776  776   1.569   1.659   2.565
    1QTZ   O777  777   1.249   1.614   1.552
    1QTZ   O778  778   1.488   1.551   1.476
    1QTZ   O779  779   0.924   1.598   2.389
    1QTZ   O780  780   1.201   1.505   1.928
    1QTZ   O781  781   0.839   1.826   1.768
    1QTZ   O782  782   1.441   1.749   2.311
    1QTZ   O783  783   1.174   1.800   1.333
    1QTZ  Si784  784   1.641   1.592   1.424
    1QTZ  Si785  785   1.074   1.645   2.325
    1QTZ  Si786  786   1.364   1.532   1.940
    1QTZ  Si787  787   0.877   1.776   1.930
    1QTZ  Si788  788   1.467   1.781   2.485
    1QTZ  Si789  789   1.200   1.768   1.503
    1QTZ  Si790  790   1.156   1.908   2.505
    1QTZ  Si791  791   0.901   1.845   1.605
    1QTZ  Si792  792   1.456   1.776   2.133
    1QTZ  Si793  793   1.058   1.532   2.008
    1QTZ  Si794  794   1.685   1.531   2.526
    1QTZ  Si795  795   1.378   1.517   1.602
    1QTZ   O796  796   1.190   1.998   1.107
    1QTZ   O797  797   1.745   2.052   0.210
    1QTZ   O798  798   1.487   1.923   0.559
    1QTZ   O799  799   1.058   2.382   0.672
    1QTZ   O800  800   1.607   2.361   1.037
    1QTZ   O801  801   1.287   2.406   0.025
    1QTZ   O802  802   1.368   2.297   1.113
    1QTZ   O803  803   1.097   2.346   0.201
    1QTZ   O804  804   1.653   2.251   0.661
    1QTZ   O805  805   1.182   2.075   0.822
    1QTZ   O806  806   1.414   1.997   0.279
    1QTZ   O807  807   1.128   2.246   1.056
    1QTZ   O808  808   0.844   2.295   0.177
    1QTZ   O809  809   1.430   2.177   0.525
    1QTZ   O810  810   1.043   2.133   0.580
    1QTZ   O811  811   1.532   2.110   1.023
    1QTZ   O812  812   1.273   2.154   0.114
    1QTZ   O813  813   1.541   2.093   0.034
    1QTZ   O814  814   0.957   2.054   0.992
    1QTZ   O815  815   1.252   1.995   0.531
    1QTZ   O816  816   0.930   2.359   0.432
    1QTZ   O817  817   1.434   2.278   0.817
    1QTZ   O818  818   1.013   2.217   0.003
    1QTZ  Si819  819   1.699   2.158   0.084
    1QTZ  Si820  820   1.120   2.094   0.985
    1QTZ  Si821  821   1.400   2.025   0.456
    1QTZ  Si822  822   0.963   2.280   0.582
    1QTZ  Si823  823   1.478   2.264   0.987
    1QTZ  Si824  824   1.170   2.279   0.063
    1QTZ  Si825  825   1.215   2.339   1.166
    1QTZ  Si826  826   0.947   2.393   0.264
    1QTZ  Si827  827   1.490   2.278   0.650
    1QTZ  Si828  828   1.143   2.025   0.660
    1QTZ  Si829  829   1.656   2.017   1.087
    1QTZ  Si830  830   1.389   2.030   0.105
    1QTZ   O831  831   1.178   2.045   2.413
    1QTZ   O832  832   1.728   1.997   1.533
    1QTZ   O833  833   1.426   1.928   2.064
    1QTZ   O834  834   0.979   2.380   2.009
    1QTZ   O835  835   1.582   2.403   2.475
    1QTZ   O836  836   1.325   2.359   1.566
    1QTZ   O837  837   1.314   2.341   2.556
    1QTZ   O838  838   1.065   2.303   1.597
    1QTZ   O839  839   1.603   2.246   2.059
    1QTZ   O840  840   1.093   2.109   2.157
    1QTZ   O841  841   1.682   2.049   1.257
    1QTZ   O842  842   1.422   2.029   1.772
    1QTZ   O843  843   1.111   2.300   2.379
    1QTZ   O844  844   0.831   2.246   1.483
    1QTZ   O845  845   1.369   2.172   2.031
    1QTZ   O846  846   0.965   2.131   1.917
    1QTZ   O847  847   1.569   2.157   2.565
    1QTZ   O848  848   1.249   2.112   1.551
    1QTZ   O849  849   1.488   2.047   1.476
    1QTZ   O850  850   0.925   2.096   2.388
    1QTZ   O851  851   1.203   2.002   1.928
    1QTZ   O852  852   0.840   2.323   1.767
    1QTZ   O853  853   1.441   2.247   2.311
    1QTZ   O854  854   1.174   2.298   1.332
    1QTZ  Si855  855   1.642   2.090   1.423
    1QTZ  Si856  856   1.075   2.143   2.325
    1QTZ  Si857  857   1.366   2.029   1.939
    1QTZ  Si858  858   0.878   2.272   1.929
    1QTZ  Si859  859   1.466   2.279   2.485
    1QTZ  Si860  860   1.201   2.266   1.503
    1QTZ  Si861  861   1.156   2.406   2.506
    1QTZ  Si862  862   0.902   2.343   1.604
    1QTZ  Si863  863   1.455   2.274   2.133
    1QTZ  Si864  864   1.060   2.029   2.008
    1QTZ  Si865  865   1.685   2.029   2.526
    1QTZ  Si866  866   1.378   2.015   1.602
    1QTZ   O867  867   1.191   2.496   1.106
    1QTZ   O868  868   1.745   2.550   0.210
    1QTZ   O869  869   1.487   2.421   0.558
    1QTZ   O870  870   1.056   2.880   0.672
    1QTZ   O871  871   1.607   2.859   1.038
    1QTZ   O872  872   1.286   2.904   0.025
    1QTZ   O873  873   1.368   2.795   1.113
    1QTZ   O874  874   1.096   2.843   0.201
    1QTZ   O875  875   1.654   2.750   0.662
    1QTZ   O876  876   1.183   2.574   0.822
    1QTZ   O877  877   1.415   2.496   0.278
    1QTZ   O878  878   1.128   2.744   1.056
    1QTZ   O879  879   0.843   2.792   0.176
    1QTZ   O880  880   1.433   2.675   0.525
    1QTZ   O881  881   1.043   2.631   0.580
    1QTZ   O882  882   1.531   2.608   1.024
    1QTZ   O883  883   1.273   2.652   0.114
    1QTZ   O884  884   1.541   2.591   0.034
    1QTZ   O885  885   0.957   2.552   0.992
    1QTZ   O886  886   1.253   2.496   0.530
    1QTZ   O887  887   0.929   2.857   0.432
    1QTZ   O888  888   1.435   2.776   0.817
    1QTZ   O889  889   1.013   2.715   0.003
    1QTZ  Si890  890   1.699   2.656   0.084
    1QTZ  Si891  891   1.120   2.592   0.984
    1QTZ  Si892  892   1.401   2.523   0.456
    1QTZ  Si893  893   0.962   2.777   0.581
    1QTZ  Si894  894   1.478   2.762   0.988
    1QTZ  Si895  895   1.170   2.776   0.063
    1QTZ  Si896  896   1.214   2.837   1.166
    1QTZ  Si897  897   0.946   2.891   0.264
    1QTZ  Si898  898   1.491   2.776   0.650
    1QTZ  Si899  899   1.144   2.524   0.659
    1QTZ  Si900  900   1.655   2.515   1.087
    1QTZ  Si901  901   1.389   2.528   0.104
    1QTZ   O902  902   1.178   2.543   2.413
    1QTZ   O903  903   1.727   2.495   1.533
    1QTZ   O904  904   1.423   2.426   2.065
    1QTZ   O905  905   0.979   2.878   2.009
    1QTZ   O906  906   1.582   2.900   2.475
    1QTZ   O907  907   1.324   2.856   1.566
    1QTZ   O908  908   1.314   2.839   2.555
    1QTZ   O909  909   1.065   2.800   1.597
    1QTZ   O910  910   1.603   2.742   2.058
    1QTZ   O911  911   1.092   2.607   2.157
    1QTZ   O912  912   1.682   2.546   1.257
    1QTZ   O913  913   1.421   2.527   1.772
    1QTZ   O914  914   1.111   2.798   2.379
    1QTZ   O915  915   0.831   2.744   1.483
    1QTZ   O916  916   1.368   2.670   2.031
    1QTZ   O917  917   0.964   2.629   1.917
    1QTZ   O918  918   1.569   2.655   2.564
    1QTZ   O919  919   1.249   2.610   1.552
    1QTZ   O920  920   1.488   2.546   1.476
    1QTZ   O921  921   0.924   2.594   2.388
    1QTZ   O922  922   1.202   2.500   1.928
    1QTZ   O923  923   0.839   2.821   1.767
    1QTZ   O924  924   1.441   2.744   2.310
    1QTZ   O925  925   1.174   2.795   1.332
    1QTZ  Si926  926   1.642   2.588   1.423
    1QTZ  Si927  927   1.075   2.641   2.325
    1QTZ  Si928  928   1.365   2.527   1.939
    1QTZ  Si929  929   0.878   2.771   1.930
    1QTZ  Si930  930   1.467   2.776   2.484
    1QTZ  Si931  931   1.200   2.764   1.503
    1QTZ  Si932  932   1.156   2.904   2.505
    1QTZ  Si933  933   0.902   2.840   1.605
    1QTZ  Si934  934   1.455   2.771   2.133
    1QTZ  Si935  935   1.058   2.527   2.007
    1QTZ  Si936  936   1.685   2.527   2.526
    1QTZ  Si937  937   1.378   2.513   1.602
    1QTZ   O938  938   1.190   2.994   1.106
    1QTZ   O939  939   1.745   3.048   0.210
    1QTZ   O940  940   1.487   2.919   0.559
    1QTZ   O941  941   1.057   3.377   0.672
    1QTZ   O942  942   1.607   3.357   1.038
    1QTZ   O943  943   1.286   3.402   0.025
    1QTZ   O944  944   1.368   3.292   1.114
    1QTZ   O945  945   1.097   3.341   0.201
    1QTZ   O946  946   1.653   3.247   0.661
    1QTZ   O947  947   1.182   3.071   0.822
    1QTZ   O948  948   1.414   2.993   0.279
    1QTZ   O949  949   1.128   3.242   1.056
    1QTZ   O950  950   0.843   3.290   0.176
    1QTZ   O951  951   1.431   3.172   0.525
    1QTZ   O952  952   1.043   3.129   0.580
    1QTZ   O953  953   1.532   3.106   1.023
    1QTZ   O954  954   1.273   3.150   0.114
    1QTZ   O955  955   1.541   3.089   0.034
    1QTZ   O956  956   0.957   3.050   0.992
    1QTZ   O957  957   1.253   2.991   0.531
    1QTZ   O958  958   0.929   3.355   0.432
    1QTZ   O959  959   1.434   3.274   0.817
    1QTZ   O960  960   1.013   3.213   0.002
    1QTZ  Si961  961   1.699   3.154   0.084
    1QTZ  Si962  962   1.120   3.090   0.985
    1QTZ  Si963  963   1.400   3.020   0.456
    1QTZ  Si964  964   0.963   3.275   0.581
    1QTZ  Si965  965   1.478   3.259   0.988
    1QTZ  Si966  966   1.170   3.274   0.063
    1QTZ  Si967  967   1.215   3.335   1.166
    1QTZ  Si968  968   0.946   3.388   0.264
    1QTZ  Si969  969   1.490   3.274   0.650
    1QTZ  Si970  970   1.143   3.020   0.660
    1QTZ  Si971  971   1.656   3.013   1.086
    1QTZ  Si972  972   1.389   3.026   0.105
    1QTZ   O973  973   1.178   3.040   2.413
    1QTZ   O974  974   1.728   2.992   1.533
    1QTZ   O975  975   1.425   2.923   2.064
    1QTZ   O976  976   0.979   3.376   2.009
    1QTZ   O977  977   1.582   3.398   2.475
    1QTZ   O978  978   1.324   3.354   1.567
    1QTZ   O979  979   1.314   3.336   2.556
    1QTZ   O980  980   1.065   3.298   1.597
    1QTZ   O981  981   1.603   3.240   2.059
    1QTZ   O982  982   1.092   3.105   2.157
    1QTZ   O983  983   1.682   3.044   1.257
    1QTZ   O984  984   1.422   3.025   1.772
    1QTZ   O985  985   1.111   3.296   2.379
    1QTZ   O986  986   0.831   3.242   1.483
    1QTZ   O987  987   1.369   3.167   2.031
    1QTZ   O988  988   0.964   3.127   1.917
    1QTZ   O989  989   1.569   3.152   2.564
    1QTZ   O990  990   1.249   3.107   1.551
    1QTZ   O991  991   1.488   3.043   1.476
    1QTZ   O992  992   0.925   3.091   2.388
    1QTZ   O993  993   1.202   2.998   1.928
    1QTZ   O994  994   0.840   3.319   1.767
    1QTZ   O995  995   1.441   3.242   2.311
    1QTZ   O996  996   1.174   3.293   1.332
    1QTZ  Si997  997   1.642   3.085   1.423
    1QTZ  Si998  998   1.075   3.139   2.325
    1QTZ  Si999  999   1.365   3.025   1.939
    1QTZ  Si100 1000   0.878   3.268   1.930
    1QTZ  Si100 1001   1.467   3.274   2.485
    1QTZ  Si100 1002   1.200   3.262   1.503
    1QTZ  Si100 1003   1.156   3.401   2.506
    1QTZ  Si100 1004   0.902   3.338   1.605
    1QTZ  Si100 1005   1.456   3.269   2.133
    1QTZ  Si100 1006   1.059   3.025   2.007
    1QTZ  Si100 1007   1.685   3.025   2.526
    1QTZ  Si100 1008   1.378   3.010   1.602
    1QTZ  O1009 1009   2.025   0.007   1.106
    1QTZ  O1010 1010   2.579   0.061   0.210
    1QTZ  O1011 1011   2.321   3.417   0.558
    1QTZ  O1012 1012   1.891   0.391   0.672
    1QTZ  O1013 1013   2.441   0.370   1.038
    1QTZ  O1014 1014   2.120   0.416   0.025
    1QTZ  O1015 1015   2.202   0.306   1.114
    1QTZ  O1016 1016   1.931   0.355   0.201
    1QTZ  O1017 1017   2.487   0.261   0.661
    1QTZ  O1018 1018   2.016   0.084   0.822
    1QTZ  O1019 1019   2.248   0.007   0.279
    1QTZ  O1020 1020   1.962   0.255   1.057
    1QTZ  O1021 1021   1.677   0.304   0.177
    1QTZ  O1022 1022   2.265   0.186   0.525
    1QTZ  O1023 1023   1.877   0.142   0.580
    1QTZ  O1024 1024   2.366   0.119   1.023
    1QTZ  O1025 1025   2.107   0.163   0.114
    1QTZ  O1026 1026   2.375   0.102   0.034
    1QTZ  O1027 1027   1.791   0.063   0.992
    1QTZ  O1028 1028   2.087   0.005   0.531
    1QTZ  O1029 1029   1.763   0.368   0.433
    1QTZ  O1030 1030   2.268   0.287   0.817
    1QTZ  O1031 1031   1.847   0.227   0.003
    1QTZ  Si103 1032   2.533   0.167   0.084
    1QTZ  Si103 1033   1.954   0.103   0.985
    1QTZ  Si103 1034   2.234   0.034   0.456
    1QTZ  Si103 1035   1.797   0.288   0.582
    1QTZ  Si103 1036   2.312   0.273   0.988
    1QTZ  Si103 1037   2.004   0.288   0.063
    1QTZ  Si103 1038   2.049   0.348   1.166
    1QTZ  Si103 1039   1.780   0.402   0.265
    1QTZ  Si104 1040   2.324   0.288   0.650
    1QTZ  Si104 1041   1.978   0.034   0.660
    1QTZ  Si104 1042   2.490   0.026   1.086
    1QTZ  Si104 1043   2.223   0.040   0.105
    1QTZ  O1044 1044   2.012   0.054   2.413
    1QTZ  O1045 1045   2.562   0.006   1.533
    1QTZ  O1046 1046   2.258   3.421   2.064
    1QTZ  O1047 1047   1.814   0.390   2.010
    1QTZ  O1048 1048   2.416   0.412   2.475
    1QTZ  O1049 1049   2.158   0.368   1.567
    1QTZ  O1050 1050   2.148   0.350   2.556
    1QTZ  O1051 1051   1.899   0.311   1.598
    1QTZ  O1052 1052   2.437   0.253   2.058
    1QTZ  O1053 1053   1.926   0.118   2.157
    1QTZ  O1054 1054   2.516   0.057   1.257
    1QTZ  O1055 1055   2.256   0.038   1.772
    1QTZ  O1056 1056   1.945   0.309   2.379
    1QTZ  O1057 1057   1.665   0.255   1.484
    1QTZ  O1058 1058   2.203   0.181   2.031
    1QTZ  O1059 1059   1.798   0.141   1.918
    1QTZ  O1060 1060   2.403   0.166   2.564
    1QTZ  O1061 1061   2.083   0.121   1.551
    1QTZ  O1062 1062   2.322   0.057   1.476
    1QTZ  O1063 1063   1.759   0.105   2.388
    1QTZ  O1064 1064   2.036   0.012   1.928
    1QTZ  O1065 1065   1.673   0.333   1.768
    1QTZ  O1066 1066   2.275   0.255   2.311
    1QTZ  O1067 1067   2.008   0.307   1.332
    1QTZ  Si106 1068   2.476   0.099   1.423
    1QTZ  Si106 1069   1.909   0.152   2.325
    1QTZ  Si107 1070   2.199   0.039   1.939
    1QTZ  Si107 1071   1.712   0.282   1.930
    1QTZ  Si107 1072   2.301   0.288   2.485
    1QTZ  Si107 1073   2.034   0.275   1.503
    1QTZ  Si107 1074   1.990   0.415   2.506
    1QTZ  Si107 1075   1.736   0.352   1.605
    1QTZ  Si107 1076   2.290   0.283   2.133
    1QTZ  Si107 1077   1.893   0.039   2.008
    1QTZ  Si107 1078   2.520   0.038   2.526
    1QTZ  Si107 1079   2.212   0.024   1.602
    1QTZ  O1080 1080   2.025   0.505   1.106
    1QTZ  O1081 1081   2.579   0.559   0.210
    1QTZ  O1082 1082   2.321   0.430   0.559
    1QTZ  O1083 1083   1.891   0.889   0.673
    1QTZ  O1084 1084   2.441   0.868   1.038
    1QTZ  O1085 1085   2.120   0.913   0.026
    1QTZ  O1086 1086   2.202   0.804   1.114
    1QTZ  O1087 1087   1.930   0.853   0.202
    1QTZ  O1088 1088   2.487   0.758   0.661
    1QTZ  O1089 1089   2.016   0.582   0.822
    1QTZ  O1090 1090   2.248   0.505   0.279
    1QTZ  O1091 1091   1.962   0.753   1.057
    1QTZ  O1092 1092   1.677   0.802   0.177
    1QTZ  O1093 1093   2.265   0.684   0.525
    1QTZ  O1094 1094   1.877   0.640   0.581
    1QTZ  O1095 1095   2.365   0.617   1.023
    1QTZ  O1096 1096   2.107   0.661   0.114
    1QTZ  O1097 1097   2.375   0.600   0.034
    1QTZ  O1098 1098   1.791   0.561   0.992
    1QTZ  O1099 1099   2.086   0.503   0.531
    1QTZ  O1100 1100   1.763   0.866   0.433
    1QTZ  O1101 1101   2.268   0.785   0.817
    1QTZ  O1102 1102   1.847   0.725   0.003
    1QTZ  Si110 1103   2.533   0.665   0.084
    1QTZ  Si110 1104   1.954   0.601   0.985
    1QTZ  Si110 1105   2.234   0.532   0.456
    1QTZ  Si110 1106   1.797   0.786   0.582
    1QTZ  Si110 1107   2.312   0.771   0.988
    1QTZ  Si110 1108   2.004   0.786   0.064
    1QTZ  Si110 1109   2.049   0.846   1.167
    1QTZ  Si111 1110   1.780   0.900   0.265
    1QTZ  Si111 1111   2.324   0.785   0.650
    1QTZ  Si111 1112   1.977   0.532   0.660
    1QTZ  Si111 1113   2.490   0.524   1.087
    1QTZ  Si111 1114   2.223   0.538   0.105
    1QTZ  O1115 1115   2.012   0.552   2.413
    1QTZ  O1116 1116   2.562   0.504   1.533
    1QTZ  O1117 1117   2.260   0.434   2.064
    1QTZ  O1118 1118   1.813   0.887   2.010
    1QTZ  O1119 1119   2.416   0.909   2.476
    1QTZ  O1120 1120   2.158   0.866   1.566
    1QTZ  O1121 1121   2.148   0.848   2.556
    1QTZ  O1122 1122   1.899   0.809   1.598
    1QTZ  O1123 1123   2.437   0.753   2.060
    1QTZ  O1124 1124   1.927   0.616   2.157
    1QTZ  O1125 1125   2.516   0.556   1.257
    1QTZ  O1126 1126   2.256   0.536   1.773
    1QTZ  O1127 1127   1.944   0.807   2.380
    1QTZ  O1128 1128   1.665   0.753   1.484
    1QTZ  O1129 1129   2.203   0.679   2.031
    1QTZ  O1130 1130   1.800   0.638   1.918
    1QTZ  O1131 1131   2.403   0.664   2.565
    1QTZ  O1132 1132   2.083   0.619   1.552
    1QTZ  O1133 1133   2.322   0.554   1.476
    1QTZ  O1134 1134   1.759   0.602   2.389
    1QTZ  O1135 1135   2.037   0.508   1.929
    1QTZ  O1136 1136   1.674   0.830   1.768
    1QTZ  O1137 1137   2.274   0.753   2.311
    1QTZ  O1138 1138   2.008   0.804   1.332
    1QTZ  Si113 1139   2.475   0.597   1.423
    1QTZ  Si114 1140   1.909   0.650   2.325
    1QTZ  Si114 1141   2.200   0.536   1.940
    1QTZ  Si114 1142   1.712   0.779   1.930
    1QTZ  Si114 1143   2.300   0.786   2.485
    1QTZ  Si114 1144   2.035   0.773   1.503
    1QTZ  Si114 1145   1.990   0.913   2.506
    1QTZ  Si114 1146   1.736   0.849   1.605
    1QTZ  Si114 1147   2.288   0.781   2.134
    1QTZ  Si114 1148   1.894   0.536   2.008
    1QTZ  Si114 1149   2.519   0.536   2.526
    1QTZ  Si115 1150   2.212   0.522   1.602
    1QTZ  O1151 1151   2.025   1.003   1.107
    1QTZ  O1152 1152   2.579   1.057   0.210
    1QTZ  O1153 1153   2.321   0.928   0.559
    1QTZ  O1154 1154   1.890   1.386   0.673
    1QTZ  O1155 1155   2.441   1.366   1.038
    1QTZ  O1156 1156   2.120   1.411   0.025
    1QTZ  O1157 1157   2.202   1.302   1.114
    1QTZ  O1158 1158   1.930   1.350   0.202
    1QTZ  O1159 1159   2.488   1.257   0.662
    1QTZ  O1160 1160   2.016   1.080   0.823
    1QTZ  O1161 1161   2.249   1.003   0.279
    1QTZ  O1162 1162   1.962   1.251   1.057
    1QTZ  O1163 1163   1.677   1.299   0.177
    1QTZ  O1164 1164   2.266   1.182   0.526
    1QTZ  O1165 1165   1.877   1.138   0.580
    1QTZ  O1166 1166   2.365   1.115   1.024
    1QTZ  O1167 1167   2.107   1.159   0.115
    1QTZ  O1168 1168   2.375   1.098   0.034
    1QTZ  O1169 1169   1.791   1.058   0.993
    1QTZ  O1170 1170   2.087   1.002   0.531
    1QTZ  O1171 1171   1.763   1.364   0.433
    1QTZ  O1172 1172   2.268   1.283   0.818
    1QTZ  O1173 1173   1.847   1.222   0.003
    1QTZ  Si117 1174   2.533   1.163   0.084
    1QTZ  Si117 1175   1.954   1.099   0.985
    1QTZ  Si117 1176   2.235   1.030   0.457
    1QTZ  Si117 1177   1.796   1.284   0.582
    1QTZ  Si117 1178   2.312   1.269   0.988
    1QTZ  Si117 1179   2.004   1.283   0.064
    1QTZ  Si118 1180   2.048   1.344   1.167
    1QTZ  Si118 1181   1.780   1.397   0.265
    1QTZ  Si118 1182   2.325   1.283   0.651
    1QTZ  Si118 1183   1.978   1.030   0.660
    1QTZ  Si118 1184   2.489   1.022   1.087
    1QTZ  Si118 1185   2.223   1.035   0.105
    1QTZ  O1186 1186   2.011   1.049   2.413
    1QTZ  O1187 1187   2.561   1.002   1.534
    1QTZ  O1188 1188   2.256   0.933   2.065
    1QTZ  O1189 1189   1.814   1.385   2.010
    1QTZ  O1190 1190   2.416   1.407   2.476
    1QTZ  O1191 1191   2.158   1.363   1.567
    1QTZ  O1192 1192   2.148   1.346   2.556
    1QTZ  O1193 1193   1.898   1.307   1.598
    1QTZ  O1194 1194   2.437   1.248   2.058
    1QTZ  O1195 1195   1.926   1.114   2.158
    1QTZ  O1196 1196   2.516   1.052   1.258
    1QTZ  O1197 1197   2.255   1.034   1.773
    1QTZ  O1198 1198   1.945   1.305   2.380
    1QTZ  O1199 1199   1.664   1.251   1.484
    1QTZ  O1200 1200   2.202   1.177   2.031
    1QTZ  O1201 1201   1.796   1.136   1.918
    1QTZ  O1202 1202   2.403   1.161   2.565
    1QTZ  O1203 1203   2.083   1.117   1.552
    1QTZ  O1204 1204   2.322   1.053   1.476
    1QTZ  O1205 1205   1.758   1.101   2.389
    1QTZ  O1206 1206   2.035   1.008   1.928
    1QTZ  O1207 1207   1.673   1.329   1.768
    1QTZ  O1208 1208   2.275   1.251   2.311
    1QTZ  O1209 1209   2.007   1.302   1.333
    1QTZ  Si121 1210   2.475   1.094   1.423
    1QTZ  Si121 1211   1.909   1.148   2.325
    1QTZ  Si121 1212   2.198   1.034   1.940
    1QTZ  Si121 1213   1.711   1.278   1.931
    1QTZ  Si121 1214   2.301   1.283   2.485
    1QTZ  Si121 1215   2.034   1.271   1.504
    1QTZ  Si121 1216   1.990   1.411   2.506
    1QTZ  Si121 1217   1.735   1.347   1.606
    1QTZ  Si121 1218   2.290   1.278   2.133
    1QTZ  Si121 1219   1.892   1.034   2.008
    1QTZ  Si122 1220   2.519   1.034   2.526
    1QTZ  Si122 1221   2.212   1.020   1.602
    1QTZ  O1222 1222   2.025   1.500   1.107
    1QTZ  O1223 1223   2.579   1.555   0.211
    1QTZ  O1224 1224   2.321   1.426   0.559
    1QTZ  O1225 1225   1.892   1.884   0.672
    1QTZ  O1226 1226   2.441   1.863   1.037
    1QTZ  O1227 1227   2.121   1.909   0.025
    1QTZ  O1228 1228   2.202   1.799   1.114
    1QTZ  O1229 1229   1.931   1.848   0.201
    1QTZ  O1230 1230   2.487   1.753   0.661
    1QTZ  O1231 1231   2.016   1.577   0.823
    1QTZ  O1232 1232   2.248   1.500   0.279
    1QTZ  O1233 1233   1.962   1.749   1.057
    1QTZ  O1234 1234   1.678   1.797   0.177
    1QTZ  O1235 1235   2.264   1.679   0.525
    1QTZ  O1236 1236   1.877   1.635   0.581
    1QTZ  O1237 1237   2.366   1.612   1.023
    1QTZ  O1238 1238   2.107   1.657   0.115
    1QTZ  O1239 1239   2.375   1.595   0.034
    1QTZ  O1240 1240   1.791   1.557   0.992
    1QTZ  O1241 1241   2.086   1.498   0.532
    1QTZ  O1242 1242   1.764   1.862   0.433
    1QTZ  O1243 1243   2.268   1.780   0.817
    1QTZ  O1244 1244   1.847   1.720   0.003
    1QTZ  Si124 1245   2.533   1.660   0.084
    1QTZ  Si124 1246   1.954   1.597   0.985
    1QTZ  Si124 1247   2.234   1.527   0.457
    1QTZ  Si124 1248   1.797   1.782   0.582
    1QTZ  Si124 1249   2.312   1.766   0.987
    1QTZ  Si125 1250   2.004   1.781   0.064
    1QTZ  Si125 1251   2.049   1.842   1.166
    1QTZ  Si125 1252   1.781   1.895   0.265
    1QTZ  Si125 1253   2.324   1.781   0.650
    1QTZ  Si125 1254   1.977   1.527   0.660
    1QTZ  Si125 1255   2.490   1.520   1.087
    1QTZ  Si125 1256   2.223   1.533   0.105
    1QTZ  O1257 1257   2.012   1.547   2.413
    1QTZ  O1258 1258   2.562   1.499   1.533
    1QTZ  O1259 1259   2.260   1.430   2.064
    1QTZ  O1260 1260   1.813   1.883   2.009
    1QTZ  O1261 1261   2.416   1.905   2.476
    1QTZ  O1262 1262   2.159   1.861   1.566
    1QTZ  O1263 1263   2.148   1.844   2.556
    1QTZ  O1264 1264   1.899   1.805   1.598
    1QTZ  O1265 1265   2.437   1.749   2.060
    1QTZ  O1266 1266   1.927   1.612   2.157
    1QTZ  O1267 1267   2.516   1.551   1.258
    1QTZ  O1268 1268   2.256   1.532   1.773
    1QTZ  O1269 1269   1.945   1.803   2.380
    1QTZ  O1270 1270   1.666   1.749   1.483
    1QTZ  O1271 1271   2.203   1.674   2.031
    1QTZ  O1272 1272   1.800   1.634   1.917
    1QTZ  O1273 1273   2.403   1.659   2.565
    1QTZ  O1274 1274   2.083   1.614   1.552
    1QTZ  O1275 1275   2.322   1.549   1.476
    1QTZ  O1276 1276   1.759   1.598   2.388
    1QTZ  O1277 1277   2.037   1.504   1.929
    1QTZ  O1278 1278   1.674   1.825   1.767
    1QTZ  O1279 1279   2.274   1.749   2.311
    1QTZ  O1280 1280   2.008   1.800   1.332
    1QTZ  Si128 1281   2.475   1.592   1.424
    1QTZ  Si128 1282   1.909   1.645   2.325
    1QTZ  Si128 1283   2.200   1.532   1.940
    1QTZ  Si128 1284   1.713   1.775   1.930
    1QTZ  Si128 1285   2.301   1.781   2.485
    1QTZ  Si128 1286   2.035   1.768   1.503
    1QTZ  Si128 1287   1.990   1.909   2.506
    1QTZ  Si128 1288   1.736   1.845   1.605
    1QTZ  Si128 1289   2.289   1.777   2.134
    1QTZ  Si129 1290   1.894   1.532   2.008
    1QTZ  Si129 1291   2.519   1.532   2.527
    1QTZ  Si129 1292   2.212   1.517   1.602
    1QTZ  O1293 1293   2.025   1.998   1.106
    1QTZ  O1294 1294   2.579   2.052   0.210
    1QTZ  O1295 1295   2.321   1.923   0.559
    1QTZ  O1296 1296   1.890   2.382   0.672
    1QTZ  O1297 1297   2.441   2.361   1.038
    1QTZ  O1298 1298   2.120   2.406   0.025
    1QTZ  O1299 1299   2.202   2.297   1.114
    1QTZ  O1300 1300   1.931   2.345   0.201
    1QTZ  O1301 1301   2.489   2.253   0.662
    1QTZ  O1302 1302   2.017   2.076   0.822
    1QTZ  O1303 1303   2.249   1.998   0.279
    1QTZ  O1304 1304   1.962   2.247   1.056
    1QTZ  O1305 1305   1.677   2.295   0.177
    1QTZ  O1306 1306   2.267   2.177   0.525
    1QTZ  O1307 1307   1.877   2.133   0.580
    1QTZ  O1308 1308   2.365   2.110   1.024
    1QTZ  O1309 1309   2.107   2.154   0.114
    1QTZ  O1310 1310   2.375   2.093   0.034
    1QTZ  O1311 1311   1.791   2.054   0.992
    1QTZ  O1312 1312   2.087   1.998   0.530
    1QTZ  O1313 1313   1.763   2.359   0.432
    1QTZ  O1314 1314   2.269   2.278   0.817
    1QTZ  O1315 1315   1.847   2.217   0.003
    1QTZ  Si131 1316   2.534   2.158   0.084
    1QTZ  Si131 1317   1.954   2.095   0.985
    1QTZ  Si131 1318   2.235   2.026   0.456
    1QTZ  Si131 1319   1.796   2.279   0.582
    1QTZ  Si132 1320   2.312   2.264   0.988
    1QTZ  Si132 1321   2.004   2.279   0.063
    1QTZ  Si132 1322   2.048   2.339   1.166
    1QTZ  Si132 1323   1.780   2.393   0.264
    1QTZ  Si132 1324   2.326   2.279   0.650
    1QTZ  Si132 1325   1.978   2.026   0.659
    1QTZ  Si132 1326   2.490   2.017   1.087
    1QTZ  Si132 1327   2.223   2.031   0.105
    1QTZ  O1328 1328   2.012   2.045   2.413
    1QTZ  O1329 1329   2.561   1.997   1.534
    1QTZ  O1330 1330   2.257   1.928   2.065
    1QTZ  O1331 1331   1.814   2.381   2.009
    1QTZ  O1332 1332   2.416   2.403   2.475
    1QTZ  O1333 1333   2.158   2.359   1.566
    1QTZ  O1334 1334   2.149   2.341   2.555
    1QTZ  O1335 1335   1.899   2.303   1.598
    1QTZ  O1336 1336   2.437   2.244   2.058
    1QTZ  O1337 1337   1.926   2.109   2.157
    1QTZ  O1338 1338   2.516   2.048   1.257
    1QTZ  O1339 1339   2.255   2.029   1.773
    1QTZ  O1340 1340   1.945   2.300   2.379
    1QTZ  O1341 1341   1.665   2.246   1.484
    1QTZ  O1342 1342   2.202   2.172   2.031
    1QTZ  O1343 1343   1.797   2.132   1.918
    1QTZ  O1344 1344   2.404   2.157   2.564
    1QTZ  O1345 1345   2.083   2.112   1.552
    1QTZ  O1346 1346   2.322   2.048   1.476
    1QTZ  O1347 1347   1.759   2.096   2.389
    1QTZ  O1348 1348   2.036   2.003   1.928
    1QTZ  O1349 1349   1.673   2.324   1.768
    1QTZ  O1350 1350   2.275   2.246   2.310
    1QTZ  O1351 1351   2.008   2.298   1.332
    1QTZ  Si135 1352   2.476   2.090   1.423
    1QTZ  Si135 1353   1.909   2.143   2.325
    1QTZ  Si135 1354   2.198   2.030   1.939
    1QTZ  Si135 1355   1.712   2.273   1.930
    1QTZ  Si135 1356   2.301   2.279   2.484
    1QTZ  Si135 1357   2.034   2.266   1.503
    1QTZ  Si135 1358   1.990   2.406   2.505
    1QTZ  Si135 1359   1.736   2.343   1.605
    1QTZ  Si136 1360   2.290   2.274   2.133
    1QTZ  Si136 1361   1.892   2.029   2.008
    1QTZ  Si136 1362   2.520   2.029   2.526
    1QTZ  Si136 1363   2.212   2.015   1.602
    1QTZ  O1364 1364   2.025   2.496   1.106
    1QTZ  O1365 1365   2.579   2.550   0.210
    1QTZ  O1366 1366   2.321   2.421   0.559
    1QTZ  O1367 1367   1.892   2.880   0.672
    1QTZ  O1368 1368   2.441   2.859   1.037
    1QTZ  O1369 1369   2.121   2.904   0.025
    1QTZ  O1370 1370   2.202   2.794   1.113
    1QTZ  O1371 1371   1.931   2.843   0.201
    1QTZ  O1372 1372   2.487   2.749   0.661
    1QTZ  O1373 1373   2.016   2.573   0.822
    1QTZ  O1374 1374   2.248   2.495   0.279
    1QTZ  O1375 1375   1.963   2.744   1.056
    1QTZ  O1376 1376   1.678   2.792   0.176
    1QTZ  O1377 1377   2.264   2.674   0.525
    1QTZ  O1378 1378   1.877   2.631   0.580
    1QTZ  O1379 1379   2.366   2.608   1.023
    1QTZ  O1380 1380   2.107   2.652   0.114
    1QTZ  O1381 1381   2.375   2.591   0.034
    1QTZ  O1382 1382   1.791   2.552   0.992
    1QTZ  O1383 1383   2.087   2.493   0.531
    1QTZ  O1384 1384   1.764   2.857   0.432
    1QTZ  O1385 1385   2.268   2.776   0.817
    1QTZ  O1386 1386   1.847   2.715   0.002
    1QTZ  Si138 1387   2.533   2.656   0.084
    1QTZ  Si138 1388   1.954   2.592   0.985
    1QTZ  Si138 1389   2.234   2.523   0.456
    1QTZ  Si139 1390   1.797   2.777   0.582
    1QTZ  Si139 1391   2.312   2.762   0.987
    1QTZ  Si139 1392   2.004   2.777   0.063
    1QTZ  Si139 1393   2.049   2.837   1.166
    1QTZ  Si139 1394   1.781   2.891   0.264
    1QTZ  Si139 1395   2.324   2.776   0.650
    1QTZ  Si139 1396   1.977   2.522   0.660
    1QTZ  Si139 1397   2.490   2.515   1.086
    1QTZ  Si139 1398   2.223   2.528   0.105
    1QTZ  O1399 1399   2.012   2.543   2.413
    1QTZ  O1400 1400   2.562   2.495   1.533
    1QTZ  O1401 1401   2.260   2.426   2.064
    1QTZ  O1402 1402   1.813   2.878   2.009
    1QTZ  O1403 1403   2.416   2.900   2.475
    1QTZ  O1404 1404   2.159   2.856   1.566
    1QTZ  O1405 1405   2.148   2.839   2.555
    1QTZ  O1406 1406   1.899   2.800   1.597
    1QTZ  O1407 1407   2.438   2.743   2.059
    1QTZ  O1408 1408   1.927   2.607   2.157
    1QTZ  O1409 1409   2.517   2.546   1.257
    1QTZ  O1410 1410   2.256   2.527   1.772
    1QTZ  O1411 1411   1.945   2.798   2.379
    1QTZ  O1412 1412   1.666   2.744   1.483
    1QTZ  O1413 1413   2.203   2.670   2.031
    1QTZ  O1414 1414   1.799   2.629   1.917
    1QTZ  O1415 1415   2.403   2.655   2.564
    1QTZ  O1416 1416   2.084   2.610   1.551
    1QTZ  O1417 1417   2.322   2.545   1.476
    1QTZ  O1418 1418   1.759   2.594   2.388
    1QTZ  O1419 1419   2.037   2.500   1.928
    1QTZ  O1420 1420   1.674   2.821   1.767
    1QTZ  O1421 1421   2.275   2.744   2.311
    1QTZ  O1422 1422   2.008   2.796   1.332
    1QTZ  Si142 1423   2.476   2.588   1.423
    1QTZ  Si142 1424   1.909   2.641   2.325
    1QTZ  Si142 1425   2.200   2.527   1.939
    1QTZ  Si142 1426   1.713   2.770   1.930
    1QTZ  Si142 1427   2.301   2.777   2.485
    1QTZ  Si142 1428   2.035   2.764   1.503
    1QTZ  Si142 1429   1.990   2.904   2.506
    1QTZ  Si143 1430   1.736   2.840   1.605
    1QTZ  Si143 1431   2.290   2.772   2.133
    1QTZ  Si143 1432   1.894   2.527   2.008
    1QTZ  Si143 1433   2.520   2.527   2.526
    1QTZ  Si143 1434   2.212   2.513   1.602
    1QTZ  O1435 1435   2.026   2.993   1.106
    1QTZ  O1436 1436   2.579   3.048   0.209
    1QTZ  O1437 1437   2.321   2.919   0.558
    1QTZ  O1438 1438   1.890   3.377   0.672
    1QTZ  O1439 1439   2.441   3.356   1.037
    1QTZ  O1440 1440   2.120   3.402   0.025
    1QTZ  O1441 1441   2.202   3.293   1.113
    1QTZ  O1442 1442   1.931   3.341   0.201
    1QTZ  O1443 1443   2.488   3.248   0.661
    1QTZ  O1444 1444   2.017   3.071   0.822
    1QTZ  O1445 1445   2.249   2.994   0.278
    1QTZ  O1446 1446   1.963   3.242   1.056
    1QTZ  O1447 1447   1.677   3.290   0.177
    1QTZ  O1448 1448   2.267   3.173   0.524
    1QTZ  O1449 1449   1.877   3.129   0.580
    1QTZ  O1450 1450   2.366   3.106   1.023
    1QTZ  O1451 1451   2.107   3.150   0.114
    1QTZ  O1452 1452   2.375   3.089   0.033
    1QTZ  O1453 1453   1.791   3.049   0.992
    1QTZ  O1454 1454   2.087   2.993   0.530
    1QTZ  O1455 1455   1.763   3.355   0.432
    1QTZ  O1456 1456   2.269   3.273   0.817
    1QTZ  O1457 1457   1.847   3.213   0.003
    1QTZ  Si145 1458   2.533   3.154   0.083
    1QTZ  Si145 1459   1.954   3.090   0.985
    1QTZ  Si146 1460   2.235   3.021   0.456
    1QTZ  Si146 1461   1.796   3.275   0.582
    1QTZ  Si146 1462   2.312   3.259   0.987
    1QTZ  Si146 1463   2.004   3.274   0.063
    1QTZ  Si146 1464   2.049   3.335   1.166
    1QTZ  Si146 1465   1.780   3.388   0.265
    1QTZ  Si146 1466   2.325   3.274   0.650
    1QTZ  Si146 1467   1.978   3.021   0.659
    1QTZ  Si146 1468   2.490   3.013   1.086
    1QTZ  Si146 1469   2.223   3.026   0.104
    1QTZ  O1470 1470   2.012   3.040   2.413
    1QTZ  O1471 1471   2.562   2.992   1.533
    1QTZ  O1472 1472   2.259   2.923   2.064
    1QTZ  O1473 1473   1.814   3.376   2.009
    1QTZ  O1474 1474   2.416   3.398   2.475
    1QTZ  O1475 1475   2.159   3.354   1.566
    1QTZ  O1476 1476   2.148   3.337   2.555
    1QTZ  O1477 1477   1.899   3.298   1.597
    1QTZ  O1478 1478   2.437   3.241   2.058
    1QTZ  O1479 1479   1.927   3.105   2.157
    1QTZ  O1480 1480   2.516   3.044   1.257
    1QTZ  O1481 1481   2.256   3.025   1.772
    1QTZ  O1482 1482   1.945   3.296   2.379
    1QTZ  O1483 1483   1.665   3.242   1.483
    1QTZ  O1484 1484   2.203   3.167   2.031
    1QTZ  O1485 1485   1.799   3.127   1.917
    1QTZ  O1486 1486   2.403   3.153   2.564
    1QTZ  O1487 1487   2.083   3.107   1.551
    1QTZ  O1488 1488   2.322   3.043   1.476
    1QTZ  O1489 1489   1.759   3.091   2.388
    1QTZ  O1490 1490   2.037   2.998   1.928
    1QTZ  O1491 1491   1.674   3.319   1.767
    1QTZ  O1492 1492   2.275   3.242   2.310
    1QTZ  O1493 1493   2.008   3.293   1.332
    1QTZ  Si149 1494   2.476   3.085   1.423
    1QTZ  Si149 1495   1.909   3.139   2.325
    1QTZ  Si149 1496   2.199   3.025   1.939
    1QTZ  Si149 1497   1.713   3.268   1.930
    1QTZ  Si149 1498   2.301   3.274   2.484
    1QTZ  Si149 1499   2.035   3.261   1.503
    1QTZ  Si150 1500   1.990   3.402   2.506
    1QTZ  Si150 1501   1.736   3.338   1.605
    1QTZ  Si150 1502   2.289   3.269   2.133
    1QTZ  Si150 1503   1.893   3.025   2.008
    1QTZ  Si150 1504   2.520   3.025   2.526
    1QTZ  Si150 1505   2.212   3.010   1.602
    1QTZ  O1506 1506   2.859   0.007   1.105
    1QTZ  O1507 1507   3.155   3.417   0.558
    1QTZ  O1508 1508   2.725   0.391   0.672
    1QTZ  O1509 1509   3.275   0.370   1.037
    1QTZ  O1510 1510   2.954   0.416   0.025
    1QTZ  O1511 1511   3.036   0.306   1.113
    1QTZ  O1512 1512   2.765   0.355   0.201
    1QTZ  O1513 1513   3.322   0.261   0.661
    1QTZ  O1514 1514   2.851   0.085   0.821
    1QTZ  O1515 1515   3.083   0.007   0.278
    1QTZ  O1516 1516   2.797   0.255   1.056
    1QTZ  O1517 1517   2.511   0.304   0.177
    1QTZ  O1518 1518   3.100   0.186   0.524
    1QTZ  O1519 1519   2.710   0.142   0.580
    1QTZ  O1520 1520   3.200   0.119   1.023
    1QTZ  O1521 1521   2.941   0.164   0.114
    1QTZ  O1522 1522   3.209   0.103   0.033
    1QTZ  O1523 1523   2.625   0.063   0.991
    1QTZ  O1524 1524   2.921   0.006   0.530
    1QTZ  O1525 1525   2.597   0.369   0.432
    1QTZ  O1526 1526   3.102   0.287   0.816
    1QTZ  O1527 1527   2.681   0.227   0.002
    1QTZ  Si152 1528   0.031   0.167   0.083
    1QTZ  Si152 1529   2.788   0.103   0.984
    1QTZ  Si153 1530   3.069   0.035   0.455
    1QTZ  Si153 1531   2.630   0.288   0.582
    1QTZ  Si153 1532   3.146   0.273   0.987
    1QTZ  Si153 1533   2.838   0.288   0.063
    1QTZ  Si153 1534   2.883   0.348   1.166
    1QTZ  Si153 1535   2.614   0.402   0.264
    1QTZ  Si153 1536   3.159   0.288   0.649
    1QTZ  Si153 1537   2.812   0.034   0.659
    1QTZ  Si153 1538   3.324   0.026   1.086
    1QTZ  Si153 1539   3.057   0.040   0.104
    1QTZ  O1540 1540   2.846   0.054   2.413
    1QTZ  O1541 1541   3.093   3.421   2.064
    1QTZ  O1542 1542   2.647   0.390   2.009
    1QTZ  O1543 1543   3.250   0.411   2.475
    1QTZ  O1544 1544   2.993   0.368   1.566
    1QTZ  O1545 1545   2.982   0.350   2.555
    1QTZ  O1546 1546   2.733   0.312   1.597
    1QTZ  O1547 1547   3.271   0.255   2.059
    1QTZ  O1548 1548   2.761   0.118   2.157
    1QTZ  O1549 1549   3.090   0.038   1.772
    1QTZ  O1550 1550   2.779   0.309   2.379
    1QTZ  O1551 1551   2.499   0.255   1.483
    1QTZ  O1552 1552   3.037   0.181   2.030
    1QTZ  O1553 1553   2.633   0.140   1.917
    1QTZ  O1554 1554   3.237   0.166   2.564
    1QTZ  O1555 1555   2.917   0.121   1.551
    1QTZ  O1556 1556   3.156   0.057   1.475
    1QTZ  O1557 1557   2.593   0.105   2.388
    1QTZ  O1558 1558   2.871   0.011   1.928
    1QTZ  O1559 1559   2.508   0.332   1.767
    1QTZ  O1560 1560   3.109   0.255   2.310
    1QTZ  O1561 1561   2.842   0.306   1.332
    1QTZ  Si156 1562   3.310   0.099   1.423
    1QTZ  Si156 1563   2.743   0.152   2.324
    1QTZ  Si156 1564   3.034   0.038   1.939
    1QTZ  Si156 1565   2.547   0.281   1.930
    1QTZ  Si156 1566   3.135   0.288   2.484
    1QTZ  Si156 1567   2.869   0.275   1.502
    1QTZ  Si156 1568   2.824   0.415   2.505
    1QTZ  Si156 1569   2.570   0.352   1.604
    1QTZ  Si157 1570   3.123   0.283   2.133
    1QTZ  Si157 1571   2.728   0.038   2.007
    1QTZ  Si157 1572   3.353   0.038   2.526
    1QTZ  Si157 1573   3.046   0.024   1.601
    1QTZ  O1574 1574   2.859   0.505   1.106
    1QTZ  O1575 1575   3.155   0.430   0.558
    1QTZ  O1576 1576   2.725   0.888   0.672
    1QTZ  O1577 1577   3.275   0.868   1.038
    1QTZ  O1578 1578   2.954   0.914   0.025
    1QTZ  O1579 1579   3.036   0.804   1.114
    1QTZ  O1580 1580   2.764   0.853   0.201
    1QTZ  O1581 1581   3.322   0.759   0.661
    1QTZ  O1582 1582   2.850   0.582   0.822
    1QTZ  O1583 1583   3.083   0.505   0.279
    1QTZ  O1584 1584   2.796   0.753   1.056
    1QTZ  O1585 1585   2.511   0.802   0.177
    1QTZ  O1586 1586   3.100   0.684   0.525
    1QTZ  O1587 1587   2.711   0.640   0.580
    1QTZ  O1588 1588   3.200   0.617   1.023
    1QTZ  O1589 1589   2.941   0.661   0.114
    1QTZ  O1590 1590   3.209   0.600   0.034
    1QTZ  O1591 1591   2.625   0.561   0.992
    1QTZ  O1592 1592   2.921   0.503   0.531
    1QTZ  O1593 1593   2.597   0.866   0.432
    1QTZ  O1594 1594   3.102   0.785   0.817
    1QTZ  O1595 1595   2.681   0.725   0.003
    1QTZ  Si159 1596   0.031   0.665   0.084
    1QTZ  Si159 1597   2.788   0.601   0.985
    1QTZ  Si159 1598   3.069   0.532   0.456
    1QTZ  Si159 1599   2.630   0.786   0.582
    1QTZ  Si160 1600   3.146   0.771   0.988
    1QTZ  Si160 1601   2.838   0.786   0.063
    1QTZ  Si160 1602   2.882   0.846   1.166
    1QTZ  Si160 1603   2.614   0.900   0.265
    1QTZ  Si160 1604   3.159   0.786   0.650
    1QTZ  Si160 1605   2.812   0.532   0.660
    1QTZ  Si160 1606   3.324   0.524   1.086
    1QTZ  Si160 1607   3.057   0.538   0.105
    1QTZ  O1608 1608   2.846   0.552   2.413
    1QTZ  O1609 1609   3.091   0.435   2.064
    1QTZ  O1610 1610   2.648   0.887   2.009
    1QTZ  O1611 1611   3.250   0.909   2.475
    1QTZ  O1612 1612   2.992   0.865   1.567
    1QTZ  O1613 1613   2.982   0.848   2.555
    1QTZ  O1614 1614   2.733   0.809   1.598
    1QTZ  O1615 1615   3.271   0.750   2.058
    1QTZ  O1616 1616   2.760   0.616   2.157
    1QTZ  O1617 1617   3.089   0.536   1.772
    1QTZ  O1618 1618   2.779   0.807   2.379
    1QTZ  O1619 1619   2.499   0.753   1.484
    1QTZ  O1620 1620   3.037   0.679   2.030
    1QTZ  O1621 1621   2.631   0.638   1.918
    1QTZ  O1622 1622   3.237   0.663   2.564
    1QTZ  O1623 1623   2.917   0.619   1.551
    1QTZ  O1624 1624   3.156   0.555   1.476
    1QTZ  O1625 1625   2.593   0.603   2.388
    1QTZ  O1626 1626   2.869   0.510   1.927
    1QTZ  O1627 1627   2.507   0.831   1.768
    1QTZ  O1628 1628   3.109   0.753   2.310
    1QTZ  O1629 1629   2.842   0.805   1.332
    1QTZ  Si163 1630   3.310   0.597   1.423
    1QTZ  Si163 1631   2.743   0.650   2.325
    1QTZ  Si163 1632   3.032   0.536   1.939
    1QTZ  Si163 1633   2.546   0.780   1.930
    1QTZ  Si163 1634   3.135   0.785   2.484
    1QTZ  Si163 1635   2.868   0.773   1.503
    1QTZ  Si163 1636   2.824   0.913   2.506
    1QTZ  Si163 1637   2.570   0.850   1.605
    1QTZ  Si163 1638   3.124   0.780   2.133
    1QTZ  Si163 1639   2.726   0.536   2.008
    1QTZ  Si164 1640   3.354   0.536   2.526
    1QTZ  Si164 1641   3.046   0.522   1.601
    1QTZ  O1642 1642   2.859   1.003   1.106
    1QTZ  O1643 1643   3.155   0.928   0.559
    1QTZ  O1644 1644   2.726   1.386   0.672
    1QTZ  O1645 1645   3.275   1.366   1.037
    1QTZ  O1646 1646   2.955   1.411   0.025
    1QTZ  O1647 1647   3.036   1.301   1.113
    1QTZ  O1648 1648   2.765   1.350   0.202
    1QTZ  O1649 1649   3.321   1.256   0.661
    1QTZ  O1650 1650   2.850   1.080   0.822
    1QTZ  O1651 1651   3.082   1.002   0.279
    1QTZ  O1652 1652   2.796   1.251   1.056
    1QTZ  O1653 1653   2.512   1.299   0.177
    1QTZ  O1654 1654   3.099   1.181   0.525
    1QTZ  O1655 1655   2.711   1.138   0.580
    1QTZ  O1656 1656   3.200   1.115   1.023
    1QTZ  O1657 1657   2.941   1.159   0.114
    1QTZ  O1658 1658   3.209   1.098   0.034
    1QTZ  O1659 1659   2.625   1.059   0.992
    1QTZ  O1660 1660   2.920   1.001   0.531
    1QTZ  O1661 1661   2.597   1.364   0.433
    1QTZ  O1662 1662   3.102   1.283   0.817
    1QTZ  O1663 1663   2.681   1.222   0.003
    1QTZ  Si166 1664   0.031   1.163   0.084
    1QTZ  Si166 1665   2.788   1.099   0.985
    1QTZ  Si166 1666   3.068   1.030   0.456
    1QTZ  Si166 1667   2.631   1.284   0.582
    1QTZ  Si166 1668   3.146   1.268   0.987
    1QTZ  Si166 1669   2.838   1.284   0.064
    1QTZ  Si167 1670   2.883   1.344   1.166
    1QTZ  Si167 1671   2.614   1.398   0.265
    1QTZ  Si167 1672   3.158   1.283   0.650
    1QTZ  Si167 1673   2.811   1.029   0.660
    1QTZ  Si167 1674   3.324   1.022   1.087
    1QTZ  Si167 1675   3.057   1.035   0.105
    1QTZ  O1676 1676   2.846   1.049   2.413
    1QTZ  O1677 1677   3.094   0.932   2.064
    1QTZ  O1678 1678   2.647   1.385   2.009
    1QTZ  O1679 1679   3.250   1.407   2.475
    1QTZ  O1680 1680   2.993   1.363   1.566
    1QTZ  O1681 1681   2.982   1.346   2.556
    1QTZ  O1682 1682   2.733   1.307   1.597
    1QTZ  O1683 1683   3.271   1.251   2.060
    1QTZ  O1684 1684   2.761   1.114   2.157
    1QTZ  O1685 1685   3.090   1.034   1.772
    1QTZ  O1686 1686   2.779   1.305   2.380
    1QTZ  O1687 1687   2.499   1.251   1.483
    1QTZ  O1688 1688   3.037   1.176   2.031
    1QTZ  O1689 1689   2.634   1.136   1.917
    1QTZ  O1690 1690   3.237   1.161   2.565
    1QTZ  O1691 1691   2.917   1.116   1.551
    1QTZ  O1692 1692   3.156   1.052   1.476
    1QTZ  O1693 1693   2.593   1.100   2.388
    1QTZ  O1694 1694   2.872   1.006   1.929
    1QTZ  O1695 1695   2.508   1.327   1.767
    1QTZ  O1696 1696   3.108   1.251   2.311
    1QTZ  O1697 1697   2.842   1.302   1.332
    1QTZ  Si169 1698   3.310   1.094   1.423
    1QTZ  Si169 1699   2.743   1.148   2.325
    1QTZ  Si170 1700   3.034   1.034   1.939
    1QTZ  Si170 1701   2.547   1.277   1.930
    1QTZ  Si170 1702   3.135   1.283   2.485
    1QTZ  Si170 1703   2.869   1.270   1.503
    1QTZ  Si170 1704   2.824   1.411   2.506
    1QTZ  Si170 1705   2.570   1.347   1.605
    1QTZ  Si170 1706   3.123   1.279   2.134
    1QTZ  Si170 1707   2.728   1.034   2.008
    1QTZ  Si170 1708   3.353   1.034   2.526
    1QTZ  Si170 1709   3.046   1.019   1.602
    1QTZ  O1710 1710   2.859   1.500   1.106
    1QTZ  O1711 1711   3.155   1.425   0.559
    1QTZ  O1712 1712   2.724   1.884   0.672
    1QTZ  O1713 1713   3.275   1.863   1.038
    1QTZ  O1714 1714   2.954   1.909   0.025
    1QTZ  O1715 1715   3.036   1.800   1.114
    1QTZ  O1716 1716   2.765   1.848   0.201
    1QTZ  O1717 1717   3.322   1.755   0.662
    1QTZ  O1718 1718   2.850   1.578   0.822
    1QTZ  O1719 1719   3.083   1.501   0.279
    1QTZ  O1720 1720   2.796   1.749   1.057
    1QTZ  O1721 1721   2.511   1.797   0.177
    1QTZ  O1722 1722   3.101   1.679   0.525
    1QTZ  O1723 1723   2.711   1.635   0.580
    1QTZ  O1724 1724   3.199   1.612   1.024
    1QTZ  O1725 1725   2.941   1.657   0.114
    1QTZ  O1726 1726   3.209   1.596   0.034
    1QTZ  O1727 1727   2.625   1.556   0.992
    1QTZ  O1728 1728   2.921   1.500   0.531
    1QTZ  O1729 1729   2.597   1.862   0.432
    1QTZ  O1730 1730   3.103   1.781   0.817
    1QTZ  O1731 1731   2.681   1.720   0.003
    1QTZ  Si173 1732   0.031   1.660   0.084
    1QTZ  Si173 1733   2.788   1.597   0.985
    1QTZ  Si173 1734   3.069   1.528   0.456
    1QTZ  Si173 1735   2.630   1.781   0.582
    1QTZ  Si173 1736   3.146   1.766   0.988
    1QTZ  Si173 1737   2.838   1.781   0.063
    1QTZ  Si173 1738   2.882   1.842   1.167
    1QTZ  Si173 1739   2.614   1.895   0.265
    1QTZ  Si174 1740   3.160   1.781   0.650
    1QTZ  Si174 1741   2.812   1.528   0.660
    1QTZ  Si174 1742   3.324   1.519   1.087
    1QTZ  Si174 1743   3.057   1.533   0.105
    1QTZ  O1744 1744   2.846   1.547   2.413
    1QTZ  O1745 1745   3.090   1.430   2.065
    1QTZ  O1746 1746   2.648   1.883   2.009
    1QTZ  O1747 1747   3.250   1.905   2.475
    1QTZ  O1748 1748   2.992   1.861   1.567
    1QTZ  O1749 1749   2.983   1.843   2.555
    1QTZ  O1750 1750   2.733   1.805   1.598
    1QTZ  O1751 1751   3.271   1.745   2.058
    1QTZ  O1752 1752   2.760   1.611   2.157
    1QTZ  O1753 1753   3.089   1.531   1.773
    1QTZ  O1754 1754   2.779   1.803   2.379
    1QTZ  O1755 1755   2.498   1.749   1.484
    1QTZ  O1756 1756   3.036   1.674   2.031
    1QTZ  O1757 1757   2.631   1.634   1.918
    1QTZ  O1758 1758   3.238   1.659   2.564
    1QTZ  O1759 1759   2.917   1.614   1.552
    1QTZ  O1760 1760   3.156   1.550   1.476
    1QTZ  O1761 1761   2.593   1.598   2.389
    1QTZ  O1762 1762   2.869   1.505   1.928
    1QTZ  O1763 1763   2.507   1.826   1.768
    1QTZ  O1764 1764   3.110   1.748   2.310
    1QTZ  O1765 1765   2.842   1.800   1.332
    1QTZ  Si176 1766   3.310   1.592   1.423
    1QTZ  Si176 1767   2.743   1.645   2.325
    1QTZ  Si176 1768   3.032   1.532   1.939
    1QTZ  Si176 1769   2.546   1.776   1.930
    1QTZ  Si177 1770   3.135   1.781   2.484
    1QTZ  Si177 1771   2.868   1.768   1.503
    1QTZ  Si177 1772   2.825   1.908   2.505
    1QTZ  Si177 1773   2.570   1.845   1.605
    1QTZ  Si177 1774   3.124   1.776   2.133
    1QTZ  Si177 1775   2.726   1.532   2.008
    1QTZ  Si177 1776   3.354   1.531   2.526
    1QTZ  Si177 1777   3.046   1.517   1.602
    1QTZ  O1778 1778   2.859   1.998   1.106
    1QTZ  O1779 1779   3.155   1.923   0.559
    1QTZ  O1780 1780   2.727   2.382   0.671
    1QTZ  O1781 1781   3.275   2.361   1.037
    1QTZ  O1782 1782   2.955   2.406   0.025
    1QTZ  O1783 1783   3.037   2.297   1.113
    1QTZ  O1784 1784   2.765   2.346   0.201
    1QTZ  O1785 1785   3.321   2.251   0.660
    1QTZ  O1786 1786   2.850   2.075   0.822
    1QTZ  O1787 1787   3.082   1.998   0.279
    1QTZ  O1788 1788   2.797   2.247   1.056
    1QTZ  O1789 1789   2.512   2.295   0.176
    1QTZ  O1790 1790   3.099   2.177   0.525
    1QTZ  O1791 1791   2.711   2.133   0.580
    1QTZ  O1792 1792   3.200   2.110   1.023
    1QTZ  O1793 1793   2.942   2.154   0.114
    1QTZ  O1794 1794   3.209   2.093   0.034
    1QTZ  O1795 1795   2.625   2.054   0.992
    1QTZ  O1796 1796   2.921   1.995   0.531
    1QTZ  O1797 1797   2.598   2.359   0.432
    1QTZ  O1798 1798   3.102   2.278   0.817
    1QTZ  O1799 1799   2.682   2.217   0.003
    1QTZ  Si180 1800   0.031   2.158   0.084
    1QTZ  Si180 1801   2.788   2.094   0.985
    1QTZ  Si180 1802   3.068   2.025   0.456
    1QTZ  Si180 1803   2.632   2.280   0.582
    1QTZ  Si180 1804   3.146   2.264   0.987
    1QTZ  Si180 1805   2.839   2.279   0.063
    1QTZ  Si180 1806   2.883   2.339   1.166
    1QTZ  Si180 1807   2.615   2.393   0.264
    1QTZ  Si180 1808   3.158   2.278   0.649
    1QTZ  Si180 1809   2.811   2.025   0.660
    1QTZ  Si181 1810   3.324   2.017   1.086
    1QTZ  Si181 1811   3.057   2.030   0.105
    1QTZ  O1812 1812   2.846   2.045   2.413
    1QTZ  O1813 1813   3.094   1.928   2.064
    1QTZ  O1814 1814   2.647   2.380   2.009
    1QTZ  O1815 1815   3.251   2.402   2.475
    1QTZ  O1816 1816   2.993   2.359   1.566
    1QTZ  O1817 1817   2.983   2.342   2.555
    1QTZ  O1818 1818   2.734   2.303   1.597
    1QTZ  O1819 1819   3.271   2.246   2.059
    1QTZ  O1820 1820   2.761   2.109   2.157
    1QTZ  O1821 1821   3.090   2.029   1.772
    1QTZ  O1822 1822   2.779   2.300   2.379
    1QTZ  O1823 1823   2.500   2.246   1.483
    1QTZ  O1824 1824   3.037   2.172   2.031
    1QTZ  O1825 1825   2.634   2.131   1.917
    1QTZ  O1826 1826   3.237   2.157   2.564
    1QTZ  O1827 1827   2.918   2.112   1.551
    1QTZ  O1828 1828   3.156   2.047   1.476
    1QTZ  O1829 1829   2.593   2.096   2.388
    1QTZ  O1830 1830   2.872   2.002   1.928
    1QTZ  O1831 1831   2.508   2.323   1.767
    1QTZ  O1832 1832   3.109   2.247   2.311
    1QTZ  O1833 1833   2.843   2.298   1.332
    1QTZ  Si183 1834   3.310   2.090   1.423
    1QTZ  Si183 1835   2.744   2.143   2.325
    1QTZ  Si183 1836   3.034   2.029   1.939
    1QTZ  Si183 1837   2.547   2.272   1.929
    1QTZ  Si183 1838   3.135   2.279   2.485
    1QTZ  Si183 1839   2.869   2.266   1.502
    1QTZ  Si184 1840   2.824   2.406   2.505
    1QTZ  Si184 1841   2.571   2.343   1.604
    1QTZ  Si184 1842   3.123   2.274   2.133
    1QTZ  Si184 1843   2.728   2.029   2.008
    1QTZ  Si184 1844   3.353   2.029   2.526
    1QTZ  Si184 1845   3.046   2.015   1.602
    1QTZ  O1846 1846   2.860   2.496   1.105
    1QTZ  O1847 1847   3.155   2.421   0.558
    1QTZ  O1848 1848   2.724   2.879   0.672
    1QTZ  O1849 1849   3.275   2.859   1.037
    1QTZ  O1850 1850   2.954   2.904   0.024
    1QTZ  O1851 1851   3.036   2.795   1.113
    1QTZ  O1852 1852   2.765   2.843   0.201
    1QTZ  O1853 1853   3.323   2.750   0.661
    1QTZ  O1854 1854   2.851   2.574   0.821
    1QTZ  O1855 1855   3.083   2.496   0.278
    1QTZ  O1856 1856   2.797   2.744   1.056
    1QTZ  O1857 1857   2.512   2.792   0.176
    1QTZ  O1858 1858   3.101   2.675   0.524
    1QTZ  O1859 1859   2.711   2.631   0.580
    1QTZ  O1860 1860   3.200   2.608   1.023
    1QTZ  O1861 1861   2.942   2.652   0.114
    1QTZ  O1862 1862   3.210   2.591   0.033
    1QTZ  O1863 1863   2.626   2.552   0.991
    1QTZ  O1864 1864   2.921   2.495   0.530
    1QTZ  O1865 1865   2.597   2.857   0.432
    1QTZ  O1866 1866   3.103   2.776   0.816
    1QTZ  O1867 1867   2.681   2.715   0.002
    1QTZ  Si186 1868   0.031   2.656   0.083
    1QTZ  Si186 1869   2.789   2.592   0.984
    1QTZ  Si187 1870   3.069   2.523   0.455
    1QTZ  Si187 1871   2.630   2.777   0.581
    1QTZ  Si187 1872   3.147   2.762   0.987
    1QTZ  Si187 1873   2.838   2.777   0.063
    1QTZ  Si187 1874   2.883   2.837   1.166
    1QTZ  Si187 1875   2.614   2.891   0.264
    1QTZ  Si187 1876   3.160   2.777   0.650
    1QTZ  Si187 1877   2.812   2.524   0.659
    1QTZ  Si187 1878   3.324   2.515   1.086
    1QTZ  Si187 1879   3.057   2.528   0.104
    1QTZ  O1880 1880   2.846   2.543   2.413
    1QTZ  O1881 1881   3.092   2.426   2.064
    1QTZ  O1882 1882   2.648   2.878   2.009
    1QTZ  O1883 1883   3.251   2.900   2.475
    1QTZ  O1884 1884   2.993   2.856   1.566
    1QTZ  O1885 1885   2.983   2.839   2.555
    1QTZ  O1886 1886   2.733   2.800   1.597
    1QTZ  O1887 1887   3.271   2.742   2.058
    1QTZ  O1888 1888   2.761   2.607   2.157
    1QTZ  O1889 1889   3.090   2.527   1.772
    1QTZ  O1890 1890   2.779   2.798   2.379
    1QTZ  O1891 1891   2.499   2.744   1.483
    1QTZ  O1892 1892   3.037   2.670   2.030
    1QTZ  O1893 1893   2.632   2.629   1.917
    1QTZ  O1894 1894   3.238   2.655   2.564
    1QTZ  O1895 1895   2.917   2.610   1.551
    1QTZ  O1896 1896   3.156   2.546   1.475
    1QTZ  O1897 1897   2.593   2.594   2.388
    1QTZ  O1898 1898   2.870   2.500   1.927
    1QTZ  O1899 1899   2.508   2.821   1.767
    1QTZ  O1900 1900   3.109   2.744   2.310
    1QTZ  O1901 1901   2.842   2.795   1.332
    1QTZ  Si190 1902   3.310   2.588   1.423
    1QTZ  Si190 1903   2.743   2.641   2.324
    1QTZ  Si190 1904   3.033   2.527   1.939
    1QTZ  Si190 1905   2.547   2.771   1.930
    1QTZ  Si190 1906   3.135   2.777   2.484
    1QTZ  Si190 1907   2.869   2.764   1.502
    1QTZ  Si190 1908   2.825   2.904   2.505
    1QTZ  Si190 1909   2.570   2.840   1.604
    1QTZ  Si191 1910   3.124   2.772   2.132
    1QTZ  Si191 1911   2.727   2.527   2.007
    1QTZ  Si191 1912   3.354   2.527   2.525
    1QTZ  Si191 1913   3.046   2.513   1.601
    1QTZ  O1914 1914   2.859   2.993   1.106
    1QTZ  O1915 1915   3.156   2.919   0.558
    1QTZ  O1916 1916   2.726   3.377   0.671
    1QTZ  O1917 1917   3.275   3.357   1.037
    1QTZ  O1918 1918   2.955   3.402   0.024
    1QTZ  O1919 1919   3.036   3.292   1.113
    1QTZ  O1920 1920   2.765   3.341   0.200
    1QTZ  O1921 1921   3.321   3.247   0.660
    1QTZ  O1922 1922   2.850   3.070   0.822
    1QTZ  O1923 1923   3.083   2.993   0.278
    1QTZ  O1924 1924   2.797   3.242   1.056
    1QTZ  O1925 1925   2.512   3.290   0.176
    1QTZ  O1926 1926   3.099   3.172   0.525
    1QTZ  O1927 1927   2.711   3.128   0.579
    1QTZ  O1928 1928   3.200   3.106   1.022
    1QTZ  O1929 1929   2.942   3.150   0.114
    1QTZ  O1930 1930   3.209   3.089   0.033
    1QTZ  O1931 1931   2.625   3.050   0.992
    1QTZ  O1932 1932   2.921   2.991   0.531
    1QTZ  O1933 1933   2.598   3.355   0.432
    1QTZ  O1934 1934   3.102   3.274   0.816
    1QTZ  O1935 1935   2.681   3.213   0.002
    1QTZ  Si193 1936   0.031   3.154   0.083
    1QTZ  Si193 1937   2.788   3.090   0.984
    1QTZ  Si193 1938   3.068   3.021   0.456
    1QTZ  Si193 1939   2.631   3.275   0.581
    1QTZ  Si194 1940   3.146   3.259   0.987
    1QTZ  Si194 1941   2.838   3.275   0.063
    1QTZ  Si194 1942   2.883   3.335   1.166
    1QTZ  Si194 1943   2.615   3.388   0.264
    1QTZ  Si194 1944   3.158   3.274   0.649
    1QTZ  Si194 1945   2.812   3.020   0.659
    1QTZ  Si194 1946   3.324   3.013   1.086
    1QTZ  Si194 1947   3.057   3.026   0.104
    1QTZ  O1948 1948   2.846   3.041   2.412
    1QTZ  O1949 1949   3.093   2.923   2.063
    1QTZ  O1950 1950   2.648   3.376   2.009
    1QTZ  O1951 1951   3.250   3.398   2.475
    1QTZ  O1952 1952   2.993   3.354   1.566
    1QTZ  O1953 1953   2.983   3.337   2.555
    1QTZ  O1954 1954   2.733   3.298   1.597
    1QTZ  O1955 1955   3.272   3.240   2.058
    1QTZ  O1956 1956   2.761   3.105   2.156
    1QTZ  O1957 1957   3.090   3.025   1.772
    1QTZ  O1958 1958   2.779   3.296   2.379
    1QTZ  O1959 1959   2.499   3.242   1.483
    1QTZ  O1960 1960   3.037   3.167   2.030
    1QTZ  O1961 1961   2.632   3.127   1.917
    1QTZ  O1962 1962   3.237   3.152   2.564
    1QTZ  O1963 1963   2.918   3.107   1.551
    1QTZ  O1964 1964   3.156   3.043   1.475
    1QTZ  O1965 1965   2.593   3.091   2.388
    1QTZ  O1966 1966   2.871   2.998   1.927
    1QTZ  O1967 1967   2.508   3.319   1.767
    1QTZ  O1968 1968   3.109   3.242   2.310
    1QTZ  O1969 1969   2.842   3.293   1.332
    1QTZ  Si197 1970   3.310   3.085   1.422
    1QTZ  Si197 1971   2.743   3.139   2.324
    1QTZ  Si197 1972   3.034   3.025   1.938
    1QTZ  Si197 1973   2.546   3.268   1.930
    1QTZ  Si197 1974   3.135   3.274   2.484
    1QTZ  Si197 1975   2.869   3.262   1.502
    1QTZ  Si197 1976   2.824   3.402   2.505
    1QTZ  Si197 1977   2.570   3.338   1.604
    1QTZ  Si197 1978   3.124   3.269   2.133
    1QTZ  Si197 1979   2.728   3.025   2.007
    1QTZ  Si198 1980   3.354   3.025   2.526
    1QTZ  Si198 1981   3.046   3.010   1.601
    1QTZ  O1982 1982   0.076   0.061   0.209
    1QTZ  O1983 1983   0.059   0.006   1.533
    1QTZ  O1984 1984   3.350   0.058   1.257
    1QTZ  O1985 1985   0.076   0.559   0.210
    1QTZ  O1986 1986   0.059   0.504   1.533
    1QTZ  O1987 1987   3.350   0.555   1.257
    1QTZ  O1988 1988   0.076   1.057   0.210
    1QTZ  O1989 1989   0.059   1.001   1.533
    1QTZ  O1990 1990   3.350   1.053   1.257
    1QTZ  O1991 1991   0.076   1.555   0.210
    1QTZ  O1992 1992   0.059   1.499   1.533
    1QTZ  O1993 1993   3.350   1.550   1.257
    1QTZ  O1994 1994   0.076   2.052   0.210
    1QTZ  O1995 1995   0.059   1.997   1.533
    1QTZ  O1996 1996   0.014   2.049   1.257
    1QTZ  O1997 1997   0.076   2.550   0.209
    1QTZ  O1998 1998   0.059   2.495   1.533
    1QTZ  O1999 1999   0.014   2.546   1.257
    1QTZ  O2000 2000   0.076   3.048   0.209
    1QTZ  O2001 2001   0.059   2.993   1.532
    1QTZ  O2002 2002   0.014   3.044   1.256
    1QTZ  O2003 2003   3.346   0.304   0.176
    1QTZ  O2004 2004   3.333   0.255   1.483
    1QTZ  O2005 2005   3.346   0.802   0.177
    1QTZ  O2006 2006   3.334   0.753   1.483
    1QTZ  O2007 2007   3.346   1.299   0.177
    1QTZ  O2008 2008   3.333   1.251   1.484
    1QTZ  O2009 2009   3.346   1.797   0.177
    1QTZ  O2010 2010   3.334   1.749   1.483
    1QTZ  O2011 2011   3.346   2.295   0.176
    1QTZ  O2012 2012   3.333   2.246   1.483
    1QTZ  O2013 2013   3.346   2.792   0.176
    1QTZ  O2014 2014   3.334   2.744   1.483
    1QTZ  O2015 2015   3.346   3.290   0.176
    1QTZ  O2016 2016   3.333   3.242   1.483
    1QTZ  O2017 2017   3.693   0.007   1.106
    1QTZ  O2018 2018   4.247   0.061   0.210
    1QTZ  O2019 2019   3.990   3.416   0.558
    1QTZ  O2020 2020   3.559   0.391   0.672
    1QTZ  O2021 2021   4.109   0.370   1.038
    1QTZ  O2022 2022   3.789   0.416   0.025
    1QTZ  O2023 2023   3.870   0.306   1.113
    1QTZ  O2024 2024   3.599   0.355   0.201
    1QTZ  O2025 2025   4.156   0.261   0.661
    1QTZ  O2026 2026   3.684   0.084   0.822
    1QTZ  O2027 2027   3.917   0.007   0.279
    1QTZ  O2028 2028   3.631   0.256   1.056
    1QTZ  O2029 2029   3.934   0.186   0.525
    1QTZ  O2030 2030   3.545   0.142   0.580
    1QTZ  O2031 2031   4.034   0.119   1.023
    1QTZ  O2032 2032   3.775   0.163   0.114
    1QTZ  O2033 2033   4.043   0.102   0.034
    1QTZ  O2034 2034   3.459   0.063   0.992
    1QTZ  O2035 2035   3.755   0.005   0.531
    1QTZ  O2036 2036   3.432   0.368   0.432
    1QTZ  O2037 2037   3.937   0.287   0.817
    1QTZ  O2038 2038   3.516   0.227   0.002
    1QTZ  Si203 2039   4.202   0.167   0.084
    1QTZ  Si204 2040   3.622   0.103   0.985
    1QTZ  Si204 2041   3.903   0.034   0.456
    1QTZ  Si204 2042   3.465   0.288   0.581
    1QTZ  Si204 2043   3.980   0.273   0.988
    1QTZ  Si204 2044   3.672   0.288   0.063
    1QTZ  Si204 2045   3.717   0.348   1.166
    1QTZ  Si204 2046   3.449   0.402   0.264
    1QTZ  Si204 2047   3.993   0.288   0.650
    1QTZ  Si204 2048   3.646   0.034   0.659
    1QTZ  Si204 2049   4.158   0.026   1.086
    1QTZ  Si205 2050   3.891   0.040   0.105
    1QTZ  O2051 2051   3.680   0.054   2.412
    1QTZ  O2052 2052   4.230   0.006   1.533
    1QTZ  O2053 2053   3.926   3.421   2.064
    1QTZ  O2054 2054   3.482   0.390   2.009
    1QTZ  O2055 2055   4.084   0.411   2.475
    1QTZ  O2056 2056   3.826   0.368   1.566
    1QTZ  O2057 2057   3.817   0.350   2.555
    1QTZ  O2058 2058   3.567   0.312   1.597
    1QTZ  O2059 2059   4.106   0.252   2.058
    1QTZ  O2060 2060   3.595   0.119   2.156
    1QTZ  O2061 2061   4.185   0.057   1.257
    1QTZ  O2062 2062   3.924   0.038   1.772
    1QTZ  O2063 2063   3.613   0.309   2.379
    1QTZ  O2064 2064   3.871   0.181   2.031
    1QTZ  O2065 2065   3.466   0.141   1.917
    1QTZ  O2066 2066   4.072   0.165   2.564
    1QTZ  O2067 2067   3.751   0.121   1.551
    1QTZ  O2068 2068   3.990   0.057   1.476
    1QTZ  O2069 2069   3.427   0.105   2.388
    1QTZ  O2070 2070   3.704   0.012   1.927
    1QTZ  O2071 2071   6.678   0.333   1.767
    1QTZ  O2072 2072   3.944   0.255   2.310
    1QTZ  O2073 2073   3.676   0.307   1.332
    1QTZ  Si207 2074   4.144   0.099   1.423
    1QTZ  Si207 2075   3.577   0.152   2.324
    1QTZ  Si207 2076   3.867   0.038   1.939
    1QTZ  Si207 2077   3.380   0.282   1.930
    1QTZ  Si207 2078   3.969   0.287   2.485
    1QTZ  Si207 2079   3.702   0.275   1.503
    1QTZ  Si208 2080   3.658   0.415   2.505
    1QTZ  Si208 2081   3.404   0.352   1.604
    1QTZ  Si208 2082   3.958   0.282   2.133
    1QTZ  Si208 2083   3.561   0.039   2.007
    1QTZ  Si208 2084   4.188   0.038   2.526
    1QTZ  Si208 2085   3.880   0.024   1.601
    1QTZ  O2086 2086   3.510   0.474   2.586
    1QTZ  O2087 2087   3.510   0.972   2.587
    1QTZ  O2088 2088   3.511   1.470   2.587
    1QTZ  O2089 2089   3.510   1.968   2.587
    1QTZ  O2090 2090   3.511   2.466   2.586
    1QTZ  O2091 2091   3.510   2.963   2.586
    1QTZ  O2092 2092   3.510   3.461   2.586
    1QTZ  O2093 2093   4.344   0.474   2.587
    1QTZ  O2094 2094   4.345   0.972   2.587
    1QTZ  O2095 2095   4.344   1.470   2.587
    1QTZ  O2096 2096   4.345   1.968   2.586
    1QTZ  O2097 2097   4.344   2.466   2.587
    1QTZ  O2098 2098   4.345   2.963   2.586
    1QTZ  O2099 2099   4.345   3.461   2.587
    1QTZ  O2100 2100   5.179   0.474   2.587
    1QTZ  O2101 2101   5.178   0.972   2.587
    1QTZ  O2102 2102   5.179   1.470   2.587
    1QTZ  O2103 2103   5.179   1.968   2.587
    1QTZ  O2104 2104   5.179   2.466   2.587
    1QTZ  O2105 2105   5.179   2.963   2.587
    1QTZ  O2106 2106   5.179   3.461   2.587
    1QTZ  O2107 2107   6.013   0.475   2.587
    1QTZ  O2108 2108   6.013   0.972   2.587
    1QTZ  O2109 2109   6.013   1.470   2.587
    1QTZ  O2110 2110   6.013   1.968   2.587
    1QTZ  O2111 2111   6.013   2.466   2.587
    1QTZ  O2112 2112   6.013   2.963   2.586
    1QTZ  O2113 2113   6.013   3.461   2.586
    1QTZ  O2114 2114   3.693   0.505   1.106
    1QTZ  O2115 2115   4.247   0.559   0.210
    1QTZ  O2116 2116   3.989   0.430   0.558
    1QTZ  O2117 2117   3.559   0.889   0.672
    1QTZ  O2118 2118   4.109   0.868   1.037
    1QTZ  O2119 2119   3.789   0.913   0.025
    1QTZ  O2120 2120   3.870   0.804   1.113
    1QTZ  O2121 2121   3.599   0.852   0.201
    1QTZ  O2122 2122   4.156   0.758   0.661
    1QTZ  O2123 2123   3.684   0.582   0.822
    1QTZ  O2124 2124   3.917   0.505   0.278
    1QTZ  O2125 2125   3.631   0.753   1.056
    1QTZ  O2126 2126   3.934   0.683   0.525
    1QTZ  O2127 2127   3.545   0.640   0.580
    1QTZ  O2128 2128   4.034   0.617   1.023
    1QTZ  O2129 2129   3.775   0.661   0.114
    1QTZ  O2130 2130   4.043   0.600   0.034
    1QTZ  O2131 2131   3.459   0.561   0.992
    1QTZ  O2132 2132   3.755   0.503   0.530
    1QTZ  O2133 2133   3.431   0.866   0.433
    1QTZ  O2134 2134   3.937   0.784   0.817
    1QTZ  O2135 2135   3.515   0.725   0.003
    1QTZ  Si213 2136   4.202   0.665   0.084
    1QTZ  Si213 2137   3.622   0.601   0.985
    1QTZ  Si213 2138   3.903   0.532   0.456
    1QTZ  Si213 2139   3.465   0.786   0.582
    1QTZ  Si214 2140   3.980   0.770   0.987
    1QTZ  Si214 2141   3.672   0.786   0.063
    1QTZ  Si214 2142   3.717   0.846   1.166
    1QTZ  Si214 2143   3.449   0.900   0.265
    1QTZ  Si214 2144   3.993   0.785   0.650
    1QTZ  Si214 2145   3.646   0.532   0.659
    1QTZ  Si214 2146   4.158   0.524   1.087
    1QTZ  Si214 2147   3.891   0.537   0.105
    1QTZ  O2148 2148   3.680   0.552   2.413
    1QTZ  O2149 2149   4.230   0.504   1.533
    1QTZ  O2150 2150   3.928   0.434   2.064
    1QTZ  O2151 2151   3.481   0.887   2.009
    1QTZ  O2152 2152   4.084   0.909   2.476
    1QTZ  O2153 2153   3.827   0.866   1.566
    1QTZ  O2154 2154   3.816   0.848   2.556
    1QTZ  O2155 2155   3.567   0.809   1.597
    1QTZ  O2156 2156   4.105   0.753   2.060
    1QTZ  O2157 2157   3.595   0.616   2.157
    1QTZ  O2158 2158   4.184   0.555   1.258
    1QTZ  O2159 2159   3.924   0.536   1.772
    1QTZ  O2160 2160   3.613   0.807   2.379
    1QTZ  O2161 2161   3.871   0.678   2.031
    1QTZ  O2162 2162   3.468   0.638   1.917
    1QTZ  O2163 2163   4.071   0.663   2.565
    1QTZ  O2164 2164   3.752   0.619   1.552
    1QTZ  O2165 2165   3.990   0.554   1.476
    1QTZ  O2166 2166   3.427   0.602   2.388
    1QTZ  O2167 2167   3.706   0.508   1.929
    1QTZ  O2168 2168   6.679   0.829   1.767
    1QTZ  O2169 2169   3.943   0.753   2.311
    1QTZ  O2170 2170   3.676   0.804   1.332
    1QTZ  Si217 2171   4.144   0.597   1.424
    1QTZ  Si217 2172   3.578   0.650   2.325
    1QTZ  Si217 2173   3.868   0.536   1.940
    1QTZ  Si217 2174   3.381   0.779   1.929
    1QTZ  Si217 2175   3.969   0.785   2.485
    1QTZ  Si217 2176   3.703   0.773   1.503
    1QTZ  Si217 2177   3.658   0.913   2.506
    1QTZ  Si217 2178   3.404   0.849   1.604
    1QTZ  Si217 2179   3.957   0.781   2.134
    1QTZ  Si218 2180   3.562   0.536   2.008
    1QTZ  Si218 2181   4.187   0.536   2.526
    1QTZ  Si218 2182   3.880   0.521   1.602
    1QTZ  O2183 2183   3.693   1.002   1.106
    1QTZ  O2184 2184   4.247   1.057   0.210
    1QTZ  O2185 2185   3.989   0.927   0.559
    1QTZ  O2186 2186   3.558   1.386   0.672
    1QTZ  O2187 2187   4.109   1.365   1.038
    1QTZ  O2188 2188   3.789   1.411   0.025
    1QTZ  O2189 2189   3.870   1.302   1.114
    1QTZ  O2190 2190   3.599   1.350   0.201
    1QTZ  O2191 2191   4.156   1.257   0.662
    1QTZ  O2192 2192   3.685   1.080   0.822
    1QTZ  O2193 2193   3.917   1.003   0.279
    1QTZ  O2194 2194   3.631   1.251   1.057
    1QTZ  O2195 2195   3.935   1.181   0.525
    1QTZ  O2196 2196   3.545   1.138   0.580
    1QTZ  O2197 2197   4.034   1.114   1.024
    1QTZ  O2198 2198   3.775   1.159   0.114
    1QTZ  O2199 2199   4.044   1.098   0.034
    1QTZ  O2200 2200   3.459   1.059   0.992
    1QTZ  O2201 2201   3.755   1.001   0.531
    1QTZ  O2202 2202   3.431   1.364   0.432
    1QTZ  O2203 2203   3.937   1.282   0.817
    1QTZ  O2204 2204   3.515   1.222   0.003
    1QTZ  Si220 2205   4.202   1.163   0.084
    1QTZ  Si220 2206   3.622   1.099   0.985
    1QTZ  Si220 2207   3.903   1.030   0.456
    1QTZ  Si220 2208   3.464   1.284   0.582
    1QTZ  Si220 2209   3.980   1.268   0.988
    1QTZ  Si221 2210   3.672   1.283   0.063
    1QTZ  Si221 2211   3.717   1.344   1.167
    1QTZ  Si221 2212   3.448   1.397   0.265
    1QTZ  Si221 2213   3.993   1.283   0.651
    1QTZ  Si221 2214   3.646   1.030   0.660
    1QTZ  Si221 2215   4.158   1.021   1.087
    1QTZ  Si221 2216   3.891   1.035   0.105
    1QTZ  O2217 2217   3.680   1.049   2.413
    1QTZ  O2218 2218   4.230   1.001   1.534
    1QTZ  O2219 2219   3.925   0.932   2.065
    1QTZ  O2220 2220   3.482   1.385   2.009
    1QTZ  O2221 2221   4.084   1.407   2.475
    1QTZ  O2222 2222   3.826   1.363   1.567
    1QTZ  O2223 2223   3.817   1.345   2.555
    1QTZ  O2224 2224   3.567   1.307   1.598
    1QTZ  O2225 2225   4.106   1.247   2.058
    1QTZ  O2226 2226   3.594   1.114   2.157
    1QTZ  O2227 2227   4.184   1.052   1.258
    1QTZ  O2228 2228   3.923   1.033   1.773
    1QTZ  O2229 2229   3.613   1.305   2.379
    1QTZ  O2230 2230   3.871   1.176   2.031
    1QTZ  O2231 2231   3.465   1.136   1.918
    1QTZ  O2232 2232   4.072   1.161   2.564
    1QTZ  O2233 2233   3.751   1.116   1.552
    1QTZ  O2234 2234   3.990   1.053   1.476
    1QTZ  O2235 2235   3.427   1.100   2.388
    1QTZ  O2236 2236   3.704   1.008   1.928
    1QTZ  O2237 2237   6.678   1.328   1.768
    1QTZ  O2238 2238   3.944   1.250   2.310
    1QTZ  O2239 2239   3.676   1.302   1.333
    1QTZ  Si224 2240   4.144   1.094   1.423
    1QTZ  Si224 2241   3.577   1.148   2.325
    1QTZ  Si224 2242   3.866   1.034   1.939
    1QTZ  Si224 2243   3.380   1.278   1.930
    1QTZ  Si224 2244   3.969   1.283   2.485
    1QTZ  Si224 2245   3.702   1.270   1.503
    1QTZ  Si224 2246   3.659   1.410   2.505
    1QTZ  Si224 2247   3.404   1.347   1.605
    1QTZ  Si224 2248   3.958   1.278   2.133
    1QTZ  Si224 2249   3.560   1.034   2.008
    1QTZ  Si225 2250   4.188   1.033   2.526
    1QTZ  Si225 2251   3.880   1.019   1.602
    1QTZ  O2252 2252   3.693   1.500   1.106
    1QTZ  O2253 2253   4.247   1.555   0.211
    1QTZ  O2254 2254   3.989   1.425   0.559
    1QTZ  O2255 2255   3.561   1.884   0.672
    1QTZ  O2256 2256   4.109   1.863   1.037
    1QTZ  O2257 2257   3.789   1.909   0.025
    1QTZ  O2258 2258   3.871   1.799   1.113
    1QTZ  O2259 2259   3.599   1.848   0.201
    1QTZ  O2260 2260   4.155   1.753   0.661
    1QTZ  O2261 2261   3.684   1.577   0.822
    1QTZ  O2262 2262   3.917   1.500   0.279
    1QTZ  O2263 2263   3.631   1.749   1.056
    1QTZ  O2264 2264   3.933   1.679   0.525
    1QTZ  O2265 2265   3.545   1.635   0.580
    1QTZ  O2266 2266   4.034   1.612   1.023
    1QTZ  O2267 2267   3.776   1.656   0.114
    1QTZ  O2268 2268   4.044   1.595   0.034
    1QTZ  O2269 2269   3.459   1.556   0.992
    1QTZ  O2270 2270   3.755   1.498   0.531
    1QTZ  O2271 2271   3.432   1.862   0.433
    1QTZ  O2272 2272   3.936   1.780   0.817
    1QTZ  O2273 2273   3.516   1.720   0.003
    1QTZ  Si227 2274   4.202   1.660   0.084
    1QTZ  Si227 2275   3.622   1.596   0.985
    1QTZ  Si227 2276   3.902   1.527   0.456
    1QTZ  Si227 2277   3.466   1.782   0.582
    1QTZ  Si227 2278   3.981   1.766   0.987
    1QTZ  Si227 2279   3.673   1.781   0.063
    1QTZ  Si228 2280   3.717   1.841   1.166
    1QTZ  Si228 2281   3.449   1.895   0.265
    1QTZ  Si228 2282   3.992   1.780   0.650
    1QTZ  Si228 2283   3.645   1.527   0.660
    1QTZ  Si228 2284   4.158   1.519   1.087
    1QTZ  Si228 2285   3.891   1.533   0.105
    1QTZ  O2286 2286   3.680   1.547   2.413
    1QTZ  O2287 2287   4.230   1.499   1.533
    1QTZ  O2288 2288   3.928   1.430   2.064
    1QTZ  O2289 2289   3.481   1.883   2.009
    1QTZ  O2290 2290   4.085   1.904   2.475
    1QTZ  O2291 2291   3.827   1.861   1.566
    1QTZ  O2292 2292   3.816   1.844   2.556
    1QTZ  O2293 2293   3.568   1.805   1.597
    1QTZ  O2294 2294   4.105   1.749   2.060
    1QTZ  O2295 2295   3.595   1.612   2.157
    1QTZ  O2296 2296   4.185   1.551   1.257
    1QTZ  O2297 2297   3.924   1.531   1.772
    1QTZ  O2298 2298   3.613   1.802   2.379
    1QTZ  O2299 2299   3.871   1.674   2.031
    1QTZ  O2300 2300   3.468   1.634   1.917
    1QTZ  O2301 2301   4.071   1.659   2.565
    1QTZ  O2302 2302   3.752   1.614   1.551
    1QTZ  O2303 2303   3.991   1.549   1.476
    1QTZ  O2304 2304   3.427   1.598   2.388
    1QTZ  O2305 2305   3.706   1.504   1.928
    1QTZ  O2306 2306   6.679   1.825   1.767
    1QTZ  O2307 2307   3.943   1.749   2.311
    1QTZ  O2308 2308   3.677   1.800   1.332
    1QTZ  Si230 2309   4.144   1.592   1.423
    1QTZ  Si231 2310   3.578   1.645   2.325
    1QTZ  Si231 2311   3.869   1.531   1.939
    1QTZ  Si231 2312   3.381   1.774   1.929
    1QTZ  Si231 2313   3.969   1.781   2.485
    1QTZ  Si231 2314   3.703   1.768   1.503
    1QTZ  Si231 2315   3.658   1.908   2.506
    1QTZ  Si231 2316   3.405   1.845   1.604
    1QTZ  Si231 2317   3.957   1.776   2.133
    1QTZ  Si231 2318   3.562   1.531   2.008
    1QTZ  Si231 2319   4.187   1.531   2.526
    1QTZ  Si232 2320   3.880   1.517   1.602
    1QTZ  O2321 2321   3.694   1.998   1.106
    1QTZ  O2322 2322   4.247   2.052   0.210
    1QTZ  O2323 2323   3.989   1.923   0.558
    1QTZ  O2324 2324   3.558   2.382   0.672
    1QTZ  O2325 2325   4.110   2.361   1.038
    1QTZ  O2326 2326   3.789   2.406   0.025
    1QTZ  O2327 2327   3.871   2.297   1.113
    1QTZ  O2328 2328   3.599   2.345   0.201
    1QTZ  O2329 2329   4.157   2.253   0.662
    1QTZ  O2330 2330   3.685   2.076   0.822
    1QTZ  O2331 2331   3.918   1.998   0.279
    1QTZ  O2332 2332   3.631   2.246   1.056
    1QTZ  O2333 2333   3.936   2.177   0.525
    1QTZ  O2334 2334   3.545   2.133   0.580
    1QTZ  O2335 2335   4.034   2.110   1.023
    1QTZ  O2336 2336   3.776   2.154   0.114
    1QTZ  O2337 2337   4.044   2.093   0.034
    1QTZ  O2338 2338   3.460   2.054   0.992
    1QTZ  O2339 2339   3.755   1.998   0.530
    1QTZ  O2340 2340   3.431   2.359   0.432
    1QTZ  O2341 2341   3.937   2.278   0.817
    1QTZ  O2342 2342   3.516   2.217   0.003
    1QTZ  Si234 2343   4.202   2.158   0.084
    1QTZ  Si234 2344   3.623   2.094   0.985
    1QTZ  Si234 2345   3.904   2.025   0.456
    1QTZ  Si234 2346   3.464   2.279   0.581
    1QTZ  Si234 2347   3.981   2.264   0.987
    1QTZ  Si234 2348   3.673   2.279   0.063
    1QTZ  Si234 2349   3.717   2.339   1.166
    1QTZ  Si235 2350   3.449   2.393   0.264
    1QTZ  Si235 2351   3.994   2.279   0.650
    1QTZ  Si235 2352   3.646   2.026   0.659
    1QTZ  Si235 2353   4.158   2.017   1.086
    1QTZ  Si235 2354   3.892   2.030   0.105
    1QTZ  O2355 2355   3.680   2.045   2.413
    1QTZ  O2356 2356   4.230   1.997   1.533
    1QTZ  O2357 2357   3.925   1.928   2.065
    1QTZ  O2358 2358   3.482   2.381   2.009
    1QTZ  O2359 2359   4.085   2.402   2.475
    1QTZ  O2360 2360   3.827   2.359   1.566
    1QTZ  O2361 2361   3.817   2.341   2.555
    1QTZ  O2362 2362   3.567   2.302   1.597
    1QTZ  O2363 2363   4.106   2.244   2.058
    1QTZ  O2364 2364   3.594   2.109   2.157
    1QTZ  O2365 2365   4.184   2.048   1.257
    1QTZ  O2366 2366   3.923   2.029   1.772
    1QTZ  O2367 2367   3.613   2.300   2.379
    1QTZ  O2368 2368   3.871   2.172   2.030
    1QTZ  O2369 2369   3.466   2.132   1.917
    1QTZ  O2370 2370   4.072   2.157   2.564
    1QTZ  O2371 2371   3.751   2.112   1.551
    1QTZ  O2372 2372   3.990   2.048   1.476
    1QTZ  O2373 2373   3.427   2.096   2.388
    1QTZ  O2374 2374   3.704   2.003   1.927
    1QTZ  O2375 2375   6.678   2.324   1.767
    1QTZ  O2376 2376   3.944   2.246   2.310
    1QTZ  O2377 2377   3.676   2.298   1.332
    1QTZ  Si237 2378   4.144   2.090   1.423
    1QTZ  Si237 2379   3.577   2.143   2.324
    1QTZ  Si238 2380   3.867   2.029   1.939
    1QTZ  Si238 2381   3.380   2.273   1.930
    1QTZ  Si238 2382   3.969   2.279   2.484
    1QTZ  Si238 2383   3.702   2.266   1.503
    1QTZ  Si238 2384   3.659   2.406   2.505
    1QTZ  Si238 2385   3.404   2.343   1.605
    1QTZ  Si238 2386   3.958   2.273   2.132
    1QTZ  Si238 2387   3.561   2.029   2.007
    1QTZ  Si238 2388   4.188   2.029   2.526
    1QTZ  Si238 2389   3.880   2.015   1.602
    1QTZ  O2390 2390   3.693   2.496   1.106
    1QTZ  O2391 2391   4.247   2.550   0.210
    1QTZ  O2392 2392   3.990   2.421   0.558
    1QTZ  O2393 2393   3.560   2.880   0.671
    1QTZ  O2394 2394   4.109   2.859   1.037
    1QTZ  O2395 2395   3.789   2.904   0.024
    1QTZ  O2396 2396   3.871   2.794   1.113
    1QTZ  O2397 2397   3.599   2.843   0.200
    1QTZ  O2398 2398   4.155   2.749   0.660
    1QTZ  O2399 2399   3.685   2.573   0.822
    1QTZ  O2400 2400   3.917   2.495   0.278
    1QTZ  O2401 2401   3.631   2.744   1.056
    1QTZ  O2402 2402   3.933   2.674   0.525
    1QTZ  O2403 2403   3.546   2.631   0.579
    1QTZ  O2404 2404   4.034   2.608   1.022
    1QTZ  O2405 2405   3.776   2.652   0.114
    1QTZ  O2406 2406   4.044   2.591   0.034
    1QTZ  O2407 2407   3.459   2.552   0.992
    1QTZ  O2408 2408   3.755   2.493   0.531
    1QTZ  O2409 2409   3.432   2.857   0.432
    1QTZ  O2410 2410   3.937   2.776   0.816
    1QTZ  O2411 2411   3.516   2.715   0.002
    1QTZ  Si241 2412   4.202   2.656   0.084
    1QTZ  Si241 2413   3.622   2.592   0.985
    1QTZ  Si241 2414   3.903   2.522   0.456
    1QTZ  Si241 2415   3.466   2.777   0.581
    1QTZ  Si241 2416   3.981   2.762   0.987
    1QTZ  Si241 2417   3.673   2.777   0.063
    1QTZ  Si241 2418   3.717   2.837   1.165
    1QTZ  Si241 2419   3.449   2.891   0.264
    1QTZ  Si242 2420   3.992   2.776   0.649
    1QTZ  Si242 2421   3.646   2.522   0.659
    1QTZ  Si242 2422   4.158   2.515   1.086
    1QTZ  Si242 2423   3.891   2.528   0.104
    1QTZ  O2424 2424   3.680   2.543   2.412
    1QTZ  O2425 2425   4.230   2.495   1.533
    1QTZ  O2426 2426   3.928   2.425   2.063
    1QTZ  O2427 2427   3.481   2.878   2.009
    1QTZ  O2428 2428   4.085   2.900   2.475
    1QTZ  O2429 2429   3.827   2.857   1.566
    1QTZ  O2430 2430   3.817   2.839   2.555
    1QTZ  O2431 2431   3.568   2.800   1.597
    1QTZ  O2432 2432   4.106   2.743   2.059
    1QTZ  O2433 2433   3.595   2.607   2.156
    1QTZ  O2434 2434   4.185   2.546   1.257
    1QTZ  O2435 2435   3.924   2.527   1.772
    1QTZ  O2436 2436   3.613   2.798   2.379
    1QTZ  O2437 2437   3.871   2.669   2.030
    1QTZ  O2438 2438   3.467   2.629   1.917
    1QTZ  O2439 2439   4.071   2.654   2.564
    1QTZ  O2440 2440   3.752   2.610   1.551
    1QTZ  O2441 2441   3.991   2.545   1.475
    1QTZ  O2442 2442   3.427   2.594   2.387
    1QTZ  O2443 2443   3.705   2.500   1.928
    1QTZ  O2444 2444   6.679   2.821   1.767
    1QTZ  O2445 2445   3.943   2.744   2.310
    1QTZ  O2446 2446   3.677   2.796   1.331
    1QTZ  Si244 2447   4.144   2.588   1.423
    1QTZ  Si244 2448   3.578   2.641   2.324
    1QTZ  Si244 2449   3.868   2.527   1.939
    1QTZ  Si245 2450   3.381   2.771   1.929
    1QTZ  Si245 2451   3.969   2.776   2.484
    1QTZ  Si245 2452   3.703   2.764   1.502
    1QTZ  Si245 2453   3.659   2.904   2.505
    1QTZ  Si245 2454   3.405   2.840   1.604
    1QTZ  Si245 2455   3.958   2.771   2.133
    1QTZ  Si245 2456   3.562   2.527   2.007
    1QTZ  Si245 2457   4.188   2.527   2.526
    1QTZ  Si245 2458   3.880   2.513   1.601
    1QTZ  O2459 2459   3.694   2.994   1.105
    1QTZ  O2460 2460   4.247   3.048   0.210
    1QTZ  O2461 2461   3.989   2.919   0.558
    1QTZ  O2462 2462   3.559   3.377   0.672
    1QTZ  O2463 2463   4.110   3.357   1.037
    1QTZ  O2464 2464   3.789   3.402   0.025
    1QTZ  O2465 2465   3.871   3.293   1.113
    1QTZ  O2466 2466   3.599   3.341   0.201
    1QTZ  O2467 2467   4.156   3.248   0.661
    1QTZ  O2468 2468   3.685   3.071   0.821
    1QTZ  O2469 2469   3.917   2.994   0.278
    1QTZ  O2470 2470   3.631   3.242   1.056
    1QTZ  O2471 2471   3.935   3.172   0.524
    1QTZ  O2472 2472   3.545   3.129   0.579
    1QTZ  O2473 2473   4.034   3.106   1.023
    1QTZ  O2474 2474   3.776   3.150   0.113
    1QTZ  O2475 2475   4.044   3.089   0.033
    1QTZ  O2476 2476   3.460   3.050   0.991
    1QTZ  O2477 2477   3.755   2.993   0.530
    1QTZ  O2478 2478   3.431   3.355   0.432
    1QTZ  O2479 2479   3.937   3.273   0.816
    1QTZ  O2480 2480   3.516   3.213   0.002
    1QTZ  Si248 2481   4.202   3.154   0.083
    1QTZ  Si248 2482   3.623   3.090   0.984
    1QTZ  Si248 2483   3.903   3.021   0.455
    1QTZ  Si248 2484   3.464   3.275   0.581
    1QTZ  Si248 2485   3.981   3.259   0.987
    1QTZ  Si248 2486   3.673   3.274   0.063
    1QTZ  Si248 2487   3.717   3.335   1.166
    1QTZ  Si248 2488   3.449   3.388   0.264
    1QTZ  Si248 2489   3.994   3.274   0.650
    1QTZ  Si249 2490   3.646   3.021   0.659
    1QTZ  Si249 2491   4.158   3.013   1.086
    1QTZ  Si249 2492   3.891   3.026   0.104
    1QTZ  O2493 2493   3.680   3.040   2.412
    1QTZ  O2494 2494   4.230   2.992   1.533
    1QTZ  O2495 2495   3.927   2.923   2.064
    1QTZ  O2496 2496   3.482   3.376   2.009
    1QTZ  O2497 2497   4.085   3.398   2.475
    1QTZ  O2498 2498   3.827   3.354   1.566
    1QTZ  O2499 2499   3.817   3.337   2.555
    1QTZ  O2500 2500   3.567   3.298   1.597
    1QTZ  O2501 2501   4.105   3.240   2.058
    1QTZ  O2502 2502   3.595   3.105   2.156
    1QTZ  O2503 2503   4.184   3.044   1.257
    1QTZ  O2504 2504   3.924   3.024   1.772
    1QTZ  O2505 2505   3.613   3.296   2.379
    1QTZ  O2506 2506   3.871   3.167   2.030
    1QTZ  O2507 2507   3.467   3.127   1.917
    1QTZ  O2508 2508   4.071   3.152   2.564
    1QTZ  O2509 2509   3.752   3.107   1.551
    1QTZ  O2510 2510   3.990   3.043   1.476
    1QTZ  O2511 2511   3.427   3.091   2.388
    1QTZ  O2512 2512   3.705   2.998   1.928
    1QTZ  O2513 2513   6.679   3.319   1.767
    1QTZ  O2514 2514   3.943   3.242   2.310
    1QTZ  O2515 2515   3.676   3.293   1.332
    1QTZ  Si251 2516   4.144   3.085   1.423
    1QTZ  Si251 2517   3.577   3.139   2.324
    1QTZ  Si251 2518   3.868   3.025   1.939
    1QTZ  Si251 2519   3.381   3.268   1.929
    1QTZ  Si252 2520   3.969   3.274   2.484
    1QTZ  Si252 2521   3.703   3.261   1.502
    1QTZ  Si252 2522   3.658   3.402   2.505
    1QTZ  Si252 2523   3.404   3.338   1.604
    1QTZ  Si252 2524   3.957   3.269   2.133
    1QTZ  Si252 2525   3.561   3.025   2.007
    1QTZ  Si252 2526   4.188   3.025   2.526
    1QTZ  Si252 2527   3.880   3.010   1.601
    1QTZ  O2528 2528   4.528   0.007   1.106
    1QTZ  O2529 2529   5.081   0.061   0.210
    1QTZ  O2530 2530   4.824   3.416   0.558
    1QTZ  O2531 2531   4.393   0.391   0.673
    1QTZ  O2532 2532   4.944   0.370   1.038
    1QTZ  O2533 2533   4.623   0.416   0.026
    1QTZ  O2534 2534   4.705   0.306   1.114
    1QTZ  O2535 2535   4.433   0.355   0.201
    1QTZ  O2536 2536   4.990   0.261   0.662
    1QTZ  O2537 2537   4.519   0.085   0.822
    1QTZ  O2538 2538   4.751   0.007   0.279
    1QTZ  O2539 2539   4.465   0.255   1.056
    1QTZ  O2540 2540   4.180   0.304   0.177
    1QTZ  O2541 2541   4.769   0.186   0.525
    1QTZ  O2542 2542   4.379   0.142   0.580
    1QTZ  O2543 2543   4.868   0.119   1.024
    1QTZ  O2544 2544   4.610   0.163   0.114
    1QTZ  O2545 2545   4.878   0.103   0.034
    1QTZ  O2546 2546   4.294   0.063   0.992
    1QTZ  O2547 2547   4.589   0.006   0.531
    1QTZ  O2548 2548   4.266   0.369   0.433
    1QTZ  O2549 2549   4.771   0.287   0.817
    1QTZ  O2550 2550   4.350   0.227   0.003
    1QTZ  Si255 2551   5.036   0.167   0.084
    1QTZ  Si255 2552   4.457   0.103   0.985
    1QTZ  Si255 2553   4.737   0.034   0.456
    1QTZ  Si255 2554   4.299   0.289   0.582
    1QTZ  Si255 2555   4.815   0.273   0.988
    1QTZ  Si255 2556   4.507   0.288   0.064
    1QTZ  Si255 2557   4.551   0.348   1.166
    1QTZ  Si255 2558   4.283   0.402   0.265
    1QTZ  Si255 2559   4.828   0.287   0.650
    1QTZ  Si256 2560   4.480   0.035   0.660
    1QTZ  Si256 2561   4.992   0.026   1.087
    1QTZ  Si256 2562   4.725   0.040   0.105
    1QTZ  O2563 2563   4.515   0.054   2.413
    1QTZ  O2564 2564   5.065   0.006   1.533
    1QTZ  O2565 2565   4.762   3.421   2.064
    1QTZ  O2566 2566   4.316   0.389   2.009
    1QTZ  O2567 2567   4.919   0.411   2.476
    1QTZ  O2568 2568   4.661   0.368   1.566
    1QTZ  O2569 2569   4.651   0.350   2.556
    1QTZ  O2570 2570   4.402   0.311   1.598
    1QTZ  O2571 2571   4.940   0.255   2.059
    1QTZ  O2572 2572   4.429   0.118   2.157
    1QTZ  O2573 2573   5.019   0.057   1.258
    1QTZ  O2574 2574   4.759   0.038   1.773
    1QTZ  O2575 2575   4.447   0.309   2.380
    1QTZ  O2576 2576   4.168   0.255   1.483
    1QTZ  O2577 2577   4.705   0.181   2.031
    1QTZ  O2578 2578   4.302   0.140   1.917
    1QTZ  O2579 2579   4.906   0.166   2.565
    1QTZ  O2580 2580   4.586   0.121   1.552
    1QTZ  O2581 2581   4.825   0.057   1.476
    1QTZ  O2582 2582   4.261   0.105   2.388
    1QTZ  O2583 2583   4.540   0.011   1.929
    1QTZ  O2584 2584   4.176   0.332   1.767
    1QTZ  O2585 2585   4.777   0.255   2.311
    1QTZ  O2586 2586   4.511   0.306   1.332
    1QTZ  Si258 2587   4.978   0.099   1.424
    1QTZ  Si258 2588   4.412   0.152   2.325
    1QTZ  Si258 2589   4.702   0.038   1.940
    1QTZ  Si259 2590   4.215   0.281   1.930
    1QTZ  Si259 2591   4.803   0.288   2.485
    1QTZ  Si259 2592   4.537   0.275   1.503
    1QTZ  Si259 2593   4.492   0.415   2.506
    1QTZ  Si259 2594   4.239   0.351   1.605
    1QTZ  Si259 2595   4.791   0.283   2.134
    1QTZ  Si259 2596   4.396   0.038   2.008
    1QTZ  Si259 2597   5.022   0.038   2.526
    1QTZ  Si259 2598   4.715   0.024   1.602
    1QTZ  O2599 2599   4.527   0.505   1.107
    1QTZ  O2600 2600   5.081   0.559   0.211
    1QTZ  O2601 2601   4.824   0.430   0.559
    1QTZ  O2602 2602   4.393   0.889   0.673
    1QTZ  O2603 2603   4.943   0.868   1.039
    1QTZ  O2604 2604   4.623   0.913   0.025
    1QTZ  O2605 2605   4.705   0.804   1.114
    1QTZ  O2606 2606   4.433   0.852   0.201
    1QTZ  O2607 2607   4.990   0.759   0.662
    1QTZ  O2608 2608   4.519   0.582   0.823
    1QTZ  O2609 2609   4.751   0.505   0.279
    1QTZ  O2610 2610   4.465   0.753   1.057
    1QTZ  O2611 2611   4.180   0.801   0.177
    1QTZ  O2612 2612   4.769   0.684   0.526
    1QTZ  O2613 2613   4.380   0.640   0.580
    1QTZ  O2614 2614   4.868   0.617   1.024
    1QTZ  O2615 2615   4.609   0.661   0.115
    1QTZ  O2616 2616   4.878   0.600   0.035
    1QTZ  O2617 2617   4.294   0.561   0.992
    1QTZ  O2618 2618   4.589   0.503   0.532
    1QTZ  O2619 2619   4.266   0.866   0.433
    1QTZ  O2620 2620   4.771   0.785   0.818
    1QTZ  O2621 2621   4.350   0.724   0.003
    1QTZ  Si262 2622   5.036   0.665   0.084
    1QTZ  Si262 2623   4.456   0.601   0.985
    1QTZ  Si262 2624   4.737   0.532   0.457
    1QTZ  Si262 2625   4.299   0.786   0.582
    1QTZ  Si262 2626   4.815   0.771   0.988
    1QTZ  Si262 2627   4.507   0.786   0.064
    1QTZ  Si262 2628   4.551   0.846   1.167
    1QTZ  Si262 2629   4.283   0.900   0.265
    1QTZ  Si263 2630   4.827   0.785   0.651
    1QTZ  Si263 2631   4.480   0.532   0.660
    1QTZ  Si263 2632   4.992   0.524   1.087
    1QTZ  Si263 2633   4.725   0.537   0.105
    1QTZ  O2634 2634   4.514   0.551   2.413
    1QTZ  O2635 2635   5.064   0.504   1.534
    1QTZ  O2636 2636   4.760   0.435   2.065
    1QTZ  O2637 2637   4.316   0.887   2.010
    1QTZ  O2638 2638   4.919   0.909   2.476
    1QTZ  O2639 2639   4.661   0.865   1.567
    1QTZ  O2640 2640   4.651   0.848   2.556
    1QTZ  O2641 2641   4.401   0.809   1.598
    1QTZ  O2642 2642   4.940   0.750   2.059
    1QTZ  O2643 2643   4.428   0.616   2.157
    1QTZ  O2644 2644   5.019   0.555   1.258
    1QTZ  O2645 2645   4.758   0.536   1.773
    1QTZ  O2646 2646   4.447   0.807   2.380
    1QTZ  O2647 2647   4.167   0.753   1.484
    1QTZ  O2648 2648   4.705   0.679   2.031
    1QTZ  O2649 2649   4.300   0.638   1.918
    1QTZ  O2650 2650   4.906   0.664   2.565
    1QTZ  O2651 2651   4.586   0.619   1.552
    1QTZ  O2652 2652   4.825   0.555   1.476
    1QTZ  O2653 2653   4.261   0.603   2.389
    1QTZ  O2654 2654   4.538   0.510   1.928
    1QTZ  O2655 2655   4.176   0.830   1.768
    1QTZ  O2656 2656   4.778   0.753   2.311
    1QTZ  O2657 2657   4.510   0.805   1.333
    1QTZ  Si265 2658   4.978   0.597   1.424
    1QTZ  Si265 2659   4.411   0.650   2.325
    1QTZ  Si266 2660   4.701   0.536   1.940
    1QTZ  Si266 2661   4.214   0.780   1.931
    1QTZ  Si266 2662   4.803   0.785   2.485
    1QTZ  Si266 2663   4.537   0.773   1.504
    1QTZ  Si266 2664   4.493   0.912   2.506
    1QTZ  Si266 2665   4.238   0.849   1.605
    1QTZ  Si266 2666   4.792   0.780   2.134
    1QTZ  Si266 2667   4.395   0.536   2.008
    1QTZ  Si266 2668   5.022   0.536   2.527
    1QTZ  Si266 2669   4.714   0.522   1.602
    1QTZ  O2670 2670   4.527   1.002   1.107
    1QTZ  O2671 2671   5.081   1.057   0.211
    1QTZ  O2672 2672   4.823   0.928   0.559
    1QTZ  O2673 2673   4.394   1.387   0.672
    1QTZ  O2674 2674   4.944   1.366   1.038
    1QTZ  O2675 2675   4.623   1.411   0.025
    1QTZ  O2676 2676   4.705   1.301   1.114
    1QTZ  O2677 2677   4.433   1.350   0.202
    1QTZ  O2678 2678   4.990   1.256   0.661
    1QTZ  O2679 2679   4.519   1.079   0.823
    1QTZ  O2680 2680   4.751   1.002   0.279
    1QTZ  O2681 2681   4.465   1.251   1.057
    1QTZ  O2682 2682   4.180   1.299   0.177
    1QTZ  O2683 2683   4.767   1.181   0.525
    1QTZ  O2684 2684   4.380   1.138   0.581
    1QTZ  O2685 2685   4.868   1.115   1.024
    1QTZ  O2686 2686   4.610   1.159   0.115
    1QTZ  O2687 2687   4.878   1.098   0.035
    1QTZ  O2688 2688   4.293   1.059   0.992
    1QTZ  O2689 2689   4.589   1.000   0.532
    1QTZ  O2690 2690   4.266   1.364   0.433
    1QTZ  O2691 2691   4.771   1.282   0.817
    1QTZ  O2692 2692   4.350   1.222   0.003
    1QTZ  Si269 2693   5.036   1.163   0.084
    1QTZ  Si269 2694   4.456   1.099   0.985
    1QTZ  Si269 2695   4.737   1.029   0.457
    1QTZ  Si269 2696   4.300   1.284   0.582
    1QTZ  Si269 2697   4.815   1.268   0.988
    1QTZ  Si269 2698   4.507   1.283   0.064
    1QTZ  Si269 2699   4.551   1.344   1.167
    1QTZ  Si270 2700   4.283   1.397   0.265
    1QTZ  Si270 2701   4.827   1.283   0.650
    1QTZ  Si270 2702   4.480   1.029   0.660
    1QTZ  Si270 2703   4.992   1.022   1.087
    1QTZ  Si270 2704   4.725   1.035   0.105
    1QTZ  O2705 2705   4.514   1.049   2.413
    1QTZ  O2706 2706   5.064   1.001   1.534
    1QTZ  O2707 2707   4.763   0.932   2.065
    1QTZ  O2708 2708   4.315   1.385   2.009
    1QTZ  O2709 2709   4.919   1.407   2.476
    1QTZ  O2710 2710   4.661   1.363   1.566
    1QTZ  O2711 2711   4.650   1.346   2.556
    1QTZ  O2712 2712   4.402   1.307   1.598
    1QTZ  O2713 2713   4.939   1.251   2.060
    1QTZ  O2714 2714   4.429   1.114   2.157
    1QTZ  O2715 2715   5.019   1.053   1.258
    1QTZ  O2716 2716   4.759   1.034   1.773
    1QTZ  O2717 2717   4.447   1.305   2.380
    1QTZ  O2718 2718   4.168   1.251   1.483
    1QTZ  O2719 2719   4.705   1.176   2.032
    1QTZ  O2720 2720   4.302   1.136   1.917
    1QTZ  O2721 2721   4.905   1.162   2.565
    1QTZ  O2722 2722   4.586   1.117   1.552
    1QTZ  O2723 2723   4.825   1.052   1.476
    1QTZ  O2724 2724   4.261   1.100   2.388
    1QTZ  O2725 2725   4.540   1.006   1.929
    1QTZ  O2726 2726   4.176   1.327   1.767
    1QTZ  O2727 2727   4.777   1.251   2.311
    1QTZ  O2728 2728   4.511   1.302   1.332
    1QTZ  Si272 2729   4.978   1.094   1.424
    1QTZ  Si273 2730   4.412   1.147   2.325
    1QTZ  Si273 2731   4.703   1.034   1.940
    1QTZ  Si273 2732   4.215   1.276   1.930
    1QTZ  Si273 2733   4.803   1.283   2.485
    1QTZ  Si273 2734   4.537   1.271   1.503
    1QTZ  Si273 2735   4.492   1.411   2.506
    1QTZ  Si273 2736   4.239   1.347   1.605
    1QTZ  Si273 2737   4.791   1.279   2.134
    1QTZ  Si273 2738   4.397   1.033   2.008
    1QTZ  Si273 2739   5.022   1.034   2.527
    1QTZ  Si274 2740   4.715   1.019   1.603
    1QTZ  O2741 2741   4.528   1.500   1.106
    1QTZ  O2742 2742   5.081   1.555   0.211
    1QTZ  O2743 2743   4.824   1.425   0.559
    1QTZ  O2744 2744   4.392   1.884   0.673
    1QTZ  O2745 2745   4.944   1.863   1.038
    1QTZ  O2746 2746   4.623   1.908   0.025
    1QTZ  O2747 2747   4.705   1.800   1.114
    1QTZ  O2748 2748   4.433   1.848   0.201
    1QTZ  O2749 2749   4.991   1.755   0.662
    1QTZ  O2750 2750   4.519   1.578   0.822
    1QTZ  O2751 2751   4.752   1.500   0.279
    1QTZ  O2752 2752   4.465   1.749   1.057
    1QTZ  O2753 2753   4.180   1.797   0.177
    1QTZ  O2754 2754   4.770   1.679   0.525
    1QTZ  O2755 2755   4.380   1.636   0.580
    1QTZ  O2756 2756   4.868   1.612   1.024
    1QTZ  O2757 2757   4.610   1.656   0.114
    1QTZ  O2758 2758   4.878   1.596   0.034
    1QTZ  O2759 2759   4.294   1.556   0.992
    1QTZ  O2760 2760   4.590   1.499   0.531
    1QTZ  O2761 2761   4.266   1.862   0.432
    1QTZ  O2762 2762   4.771   1.780   0.817
    1QTZ  O2763 2763   4.350   1.719   0.003
    1QTZ  Si276 2764   5.036   1.660   0.084
    1QTZ  Si276 2765   4.457   1.597   0.985
    1QTZ  Si276 2766   4.738   1.528   0.457
    1QTZ  Si276 2767   4.299   1.781   0.582
    1QTZ  Si276 2768   4.815   1.766   0.988
    1QTZ  Si276 2769   4.507   1.781   0.063
    1QTZ  Si277 2770   4.551   1.842   1.167
    1QTZ  Si277 2771   4.283   1.895   0.265
    1QTZ  Si277 2772   4.828   1.781   0.651
    1QTZ  Si277 2773   4.480   1.528   0.660
    1QTZ  Si277 2774   4.992   1.519   1.087
    1QTZ  Si277 2775   4.726   1.533   0.105
    1QTZ  O2776 2776   4.514   1.547   2.413
    1QTZ  O2777 2777   5.064   1.499   1.534
    1QTZ  O2778 2778   4.759   1.430   2.065
    1QTZ  O2779 2779   4.316   1.883   2.009
    1QTZ  O2780 2780   4.919   1.905   2.475
    1QTZ  O2781 2781   4.661   1.861   1.567
    1QTZ  O2782 2782   4.651   1.843   2.555
    1QTZ  O2783 2783   4.401   1.805   1.598
    1QTZ  O2784 2784   4.940   1.746   2.058
    1QTZ  O2785 2785   4.428   1.611   2.157
    1QTZ  O2786 2786   5.019   1.550   1.258
    1QTZ  O2787 2787   4.758   1.531   1.773
    1QTZ  O2788 2788   4.447   1.802   2.379
    1QTZ  O2789 2789   4.167   1.748   1.484
    1QTZ  O2790 2790   4.705   1.674   2.031
    1QTZ  O2791 2791   4.299   1.634   1.918
    1QTZ  O2792 2792   4.906   1.659   2.565
    1QTZ  O2793 2793   4.585   1.614   1.552
    1QTZ  O2794 2794   4.824   1.551   1.476
    1QTZ  O2795 2795   4.261   1.598   2.389
    1QTZ  O2796 2796   4.538   1.505   1.928
    1QTZ  O2797 2797   4.176   1.826   1.768
    1QTZ  O2798 2798   4.778   1.749   2.311
    1QTZ  O2799 2799   4.510   1.800   1.333
    1QTZ  Si280 2800   4.978   1.592   1.424
    1QTZ  Si280 2801   4.411   1.645   2.325
    1QTZ  Si280 2802   4.701   1.532   1.940
    1QTZ  Si280 2803   4.214   1.776   1.930
    1QTZ  Si280 2804   4.803   1.781   2.485
    1QTZ  Si280 2805   4.537   1.768   1.503
    1QTZ  Si280 2806   4.493   1.908   2.505
    1QTZ  Si280 2807   4.238   1.845   1.605
    1QTZ  Si280 2808   4.792   1.776   2.133
    1QTZ  Si280 2809   4.394   1.532   2.008
    1QTZ  Si281 2810   5.022   1.531   2.526
    1QTZ  Si281 2811   4.714   1.517   1.602
    1QTZ  O2812 2812   4.527   1.998   1.107
    1QTZ  O2813 2813   5.081   2.052   0.210
    1QTZ  O2814 2814   4.824   1.923   0.559
    1QTZ  O2815 2815   4.395   2.382   0.672
    1QTZ  O2816 2816   4.944   2.361   1.037
    1QTZ  O2817 2817   4.623   2.406   0.025
    1QTZ  O2818 2818   4.705   2.297   1.113
    1QTZ  O2819 2819   4.434   2.346   0.201
    1QTZ  O2820 2820   4.989   2.251   0.661
    1QTZ  O2821 2821   4.519   2.075   0.822
    1QTZ  O2822 2822   4.751   1.997   0.279
    1QTZ  O2823 2823   4.465   2.246   1.056
    1QTZ  O2824 2824   4.180   2.295   0.177
    1QTZ  O2825 2825   4.767   2.177   0.525
    1QTZ  O2826 2826   4.380   2.133   0.580
    1QTZ  O2827 2827   4.869   2.110   1.023
    1QTZ  O2828 2828   4.610   2.154   0.114
    1QTZ  O2829 2829   4.878   2.093   0.034
    1QTZ  O2830 2830   4.293   2.054   0.992
    1QTZ  O2831 2831   4.589   1.995   0.531
    1QTZ  O2832 2832   4.266   2.359   0.432
    1QTZ  O2833 2833   4.771   2.278   0.817
    1QTZ  O2834 2834   4.350   2.217   0.003
    1QTZ  Si283 2835   5.036   2.158   0.084
    1QTZ  Si283 2836   4.456   2.094   0.985
    1QTZ  Si283 2837   4.737   2.025   0.456
    1QTZ  Si283 2838   4.300   2.280   0.582
    1QTZ  Si283 2839   4.815   2.264   0.987
    1QTZ  Si284 2840   4.507   2.279   0.063
    1QTZ  Si284 2841   4.551   2.339   1.166
    1QTZ  Si284 2842   4.283   2.393   0.264
    1QTZ  Si284 2843   4.827   2.278   0.650
    1QTZ  Si284 2844   4.480   2.025   0.660
    1QTZ  Si284 2845   4.993   2.017   1.087
    1QTZ  Si284 2846   4.725   2.030   0.105
    1QTZ  O2847 2847   4.515   2.045   2.413
    1QTZ  O2848 2848   5.065   1.997   1.533
    1QTZ  O2849 2849   4.762   1.928   2.064
    1QTZ  O2850 2850   4.315   2.380   2.009
    1QTZ  O2851 2851   4.919   2.403   2.475
    1QTZ  O2852 2852   4.661   2.359   1.566
    1QTZ  O2853 2853   4.651   2.341   2.556
    1QTZ  O2854 2854   4.402   2.303   1.597
    1QTZ  O2855 2855   4.940   2.246   2.059
    1QTZ  O2856 2856   4.429   2.109   2.157
    1QTZ  O2857 2857   5.019   2.049   1.257
    1QTZ  O2858 2858   4.759   2.029   1.772
    1QTZ  O2859 2859   4.447   2.300   2.379
    1QTZ  O2860 2860   4.168   2.246   1.483
    1QTZ  O2861 2861   4.706   2.172   2.031
    1QTZ  O2862 2862   4.302   2.131   1.917
    1QTZ  O2863 2863   4.906   2.157   2.565
    1QTZ  O2864 2864   4.586   2.112   1.551
    1QTZ  O2865 2865   4.825   2.047   1.476
    1QTZ  O2866 2866   4.261   2.096   2.388
    1QTZ  O2867 2867   4.540   2.002   1.928
    1QTZ  O2868 2868   4.177   2.323   1.767
    1QTZ  O2869 2869   4.777   2.247   2.311
    1QTZ  O2870 2870   4.511   2.298   1.332
    1QTZ  Si287 2871   4.978   2.090   1.423
    1QTZ  Si287 2872   4.412   2.143   2.325
    1QTZ  Si287 2873   4.703   2.029   1.939
    1QTZ  Si287 2874   4.215   2.272   1.929
    1QTZ  Si287 2875   4.803   2.279   2.485
    1QTZ  Si287 2876   4.537   2.266   1.503
    1QTZ  Si287 2877   4.493   2.406   2.506
    1QTZ  Si287 2878   4.239   2.343   1.604
    1QTZ  Si287 2879   4.792   2.274   2.133
    1QTZ  Si288 2880   4.397   2.029   2.008
    1QTZ  Si288 2881   5.022   2.029   2.526
    1QTZ  Si288 2882   4.715   2.015   1.602
    1QTZ  O2883 2883   4.528   2.496   1.106
    1QTZ  O2884 2884   5.082   2.550   0.210
    1QTZ  O2885 2885   4.824   2.421   0.558
    1QTZ  O2886 2886   4.393   2.880   0.672
    1QTZ  O2887 2887   4.944   2.859   1.038
    1QTZ  O2888 2888   4.623   2.904   0.025
    1QTZ  O2889 2889   4.705   2.795   1.113
    1QTZ  O2890 2890   4.433   2.843   0.201
    1QTZ  O2891 2891   4.991   2.750   0.662
    1QTZ  O2892 2892   4.519   2.574   0.822
    1QTZ  O2893 2893   4.752   2.496   0.278
    1QTZ  O2894 2894   4.465   2.744   1.056
    1QTZ  O2895 2895   4.180   2.792   0.176
    1QTZ  O2896 2896   4.770   2.675   0.525
    1QTZ  O2897 2897   4.379   2.631   0.580
    1QTZ  O2898 2898   4.868   2.608   1.024
    1QTZ  O2899 2899   4.610   2.652   0.114
    1QTZ  O2900 2900   4.878   2.591   0.034
    1QTZ  O2901 2901   4.294   2.552   0.992
    1QTZ  O2902 2902   4.590   2.495   0.530
    1QTZ  O2903 2903   4.266   2.857   0.432
    1QTZ  O2904 2904   4.771   2.776   0.817
    1QTZ  O2905 2905   4.350   2.715   0.003
    1QTZ  Si290 2906   5.036   2.656   0.084
    1QTZ  Si290 2907   4.457   2.592   0.984
    1QTZ  Si290 2908   4.738   2.523   0.456
    1QTZ  Si290 2909   4.299   2.777   0.581
    1QTZ  Si291 2910   4.815   2.762   0.988
    1QTZ  Si291 2911   4.507   2.776   0.063
    1QTZ  Si291 2912   4.551   2.837   1.166
    1QTZ  Si291 2913   4.283   2.891   0.264
    1QTZ  Si291 2914   4.828   2.776   0.650
    1QTZ  Si291 2915   4.481   2.524   0.659
    1QTZ  Si291 2916   4.992   2.515   1.087
    1QTZ  Si291 2917   4.726   2.528   0.104
    1QTZ  O2918 2918   4.514   2.543   2.413
    1QTZ  O2919 2919   5.064   2.495   1.533
    1QTZ  O2920 2920   4.760   2.426   2.065
    1QTZ  O2921 2921   4.316   2.878   2.009
    1QTZ  O2922 2922   4.919   2.900   2.475
    1QTZ  O2923 2923   4.661   2.857   1.566
    1QTZ  O2924 2924   4.651   2.839   2.555
    1QTZ  O2925 2925   4.401   2.800   1.597
    1QTZ  O2926 2926   4.940   2.742   2.058
    1QTZ  O2927 2927   4.429   2.607   2.157
    1QTZ  O2928 2928   5.019   2.546   1.257
    1QTZ  O2929 2929   4.758   2.527   1.772
    1QTZ  O2930 2930   4.447   2.798   2.379
    1QTZ  O2931 2931   4.167   2.744   1.483
    1QTZ  O2932 2932   4.705   2.670   2.031
    1QTZ  O2933 2933   4.301   2.629   1.917
    1QTZ  O2934 2934   4.906   2.655   2.564
    1QTZ  O2935 2935   4.586   2.610   1.552
    1QTZ  O2936 2936   4.825   2.546   1.476
    1QTZ  O2937 2937   4.261   2.594   2.388
    1QTZ  O2938 2938   4.539   2.500   1.928
    1QTZ  O2939 2939   4.176   2.821   1.767
    1QTZ  O2940 2940   4.778   2.744   2.310
    1QTZ  O2941 2941   4.511   2.795   1.332
    1QTZ  Si294 2942   4.978   2.588   1.423
    1QTZ  Si294 2943   4.411   2.641   2.325
    1QTZ  Si294 2944   4.701   2.527   1.939
    1QTZ  Si294 2945   4.215   2.771   1.930
    1QTZ  Si294 2946   4.803   2.776   2.484
    1QTZ  Si294 2947   4.537   2.764   1.503
    1QTZ  Si294 2948   4.493   2.904   2.505
    1QTZ  Si294 2949   4.238   2.840   1.605
    1QTZ  Si295 2950   4.792   2.771   2.133
    1QTZ  Si295 2951   4.395   2.527   2.007
    1QTZ  Si295 2952   5.022   2.527   2.526
    1QTZ  Si295 2953   4.715   2.513   1.602
    1QTZ  O2954 2954   4.527   2.994   1.106
    1QTZ  O2955 2955   5.081   3.048   0.210
    1QTZ  O2956 2956   4.824   2.919   0.559
    1QTZ  O2957 2957   4.394   3.377   0.672
    1QTZ  O2958 2958   4.944   3.357   1.038
    1QTZ  O2959 2959   4.623   3.402   0.025
    1QTZ  O2960 2960   4.705   3.292   1.114
    1QTZ  O2961 2961   4.433   3.341   0.201
    1QTZ  O2962 2962   4.990   3.247   0.661
    1QTZ  O2963 2963   4.519   3.071   0.822
    1QTZ  O2964 2964   4.751   2.993   0.279
    1QTZ  O2965 2965   4.465   3.242   1.056
    1QTZ  O2966 2966   4.180   3.290   0.176
    1QTZ  O2967 2967   4.768   3.172   0.525
    1QTZ  O2968 2968   4.380   3.129   0.580
    1QTZ  O2969 2969   4.869   3.106   1.023
    1QTZ  O2970 2970   4.610   3.150   0.114
    1QTZ  O2971 2971   4.878   3.089   0.034
    1QTZ  O2972 2972   4.293   3.050   0.992
    1QTZ  O2973 2973   4.589   2.991   0.531
    1QTZ  O2974 2974   4.266   3.355   0.432
    1QTZ  O2975 2975   4.771   3.274   0.817
    1QTZ  O2976 2976   4.350   3.213   0.002
    1QTZ  Si297 2977   5.036   3.154   0.084
    1QTZ  Si297 2978   4.456   3.090   0.985
    1QTZ  Si297 2979   4.737   3.020   0.456
    1QTZ  Si298 2980   4.300   3.275   0.582
    1QTZ  Si298 2981   4.815   3.259   0.988
    1QTZ  Si298 2982   4.507   3.274   0.063
    1QTZ  Si298 2983   4.551   3.335   1.166
    1QTZ  Si298 2984   4.283   3.388   0.264
    1QTZ  Si298 2985   4.827   3.274   0.650
    1QTZ  Si298 2986   4.480   3.020   0.660
    1QTZ  Si298 2987   4.993   3.013   1.086
    1QTZ  Si298 2988   4.725   3.026   0.105
    1QTZ  O2989 2989   4.515   3.040   2.413
    1QTZ  O2990 2990   5.065   2.992   1.533
    1QTZ  O2991 2991   4.761   2.923   2.064
    1QTZ  O2992 2992   4.316   3.376   2.009
    1QTZ  O2993 2993   4.919   3.398   2.475
    1QTZ  O2994 2994   4.661   3.354   1.567
    1QTZ  O2995 2995   4.651   3.336   2.556
    1QTZ  O2996 2996   4.402   3.298   1.597
    1QTZ  O2997 2997   4.940   3.240   2.059
    1QTZ  O2998 2998   4.429   3.105   2.157
    1QTZ  O2999 2999   5.019   3.044   1.257
    1QTZ  O3000 3000   4.758   3.025   1.772
    1QTZ  O3001 3001   4.447   3.296   2.379
    1QTZ  O3002 3002   4.168   3.242   1.483
    1QTZ  O3003 3003   4.706   3.167   2.031
    1QTZ  O3004 3004   4.301   3.127   1.917
    1QTZ  O3005 3005   4.906   3.152   2.564
    1QTZ  O3006 3006   4.586   3.107   1.551
    1QTZ  O3007 3007   4.825   3.043   1.476
    1QTZ  O3008 3008   4.261   3.091   2.388
    1QTZ  O3009 3009   4.539   2.998   1.928
    1QTZ  O3010 3010   4.176   3.319   1.767
    1QTZ  O3011 3011   4.778   3.242   2.311
    1QTZ  O3012 3012   4.511   3.293   1.332
    1QTZ  Si301 3013   4.979   3.085   1.423
    1QTZ  Si301 3014   4.412   3.139   2.324
    1QTZ  Si301 3015   4.702   3.025   1.939
    1QTZ  Si301 3016   4.215   3.268   1.930
    1QTZ  Si301 3017   4.803   3.274   2.485
    1QTZ  Si301 3018   4.537   3.262   1.503
    1QTZ  Si301 3019   4.493   3.401   2.506
    1QTZ  Si302 3020   4.239   3.338   1.605
    1QTZ  Si302 3021   4.792   3.269   2.133
    1QTZ  Si302 3022   4.396   3.025   2.007
    1QTZ  Si302 3023   5.022   3.025   2.526
    1QTZ  Si302 3024   4.715   3.010   1.602
    1QTZ  O3025 3025   5.362   0.007   1.106
    1QTZ  O3026 3026   5.916   0.061   0.210
    1QTZ  O3027 3027   5.658   3.417   0.558
    1QTZ  O3028 3028   5.228   0.391   0.672
    1QTZ  O3029 3029   5.778   0.370   1.038
    1QTZ  O3030 3030   5.457   0.416   0.025
    1QTZ  O3031 3031   5.539   0.306   1.114
    1QTZ  O3032 3032   5.267   0.355   0.201
    1QTZ  O3033 3033   5.824   0.261   0.661
    1QTZ  O3034 3034   5.353   0.084   0.822
    1QTZ  O3035 3035   5.585   0.007   0.279
    1QTZ  O3036 3036   5.299   0.255   1.057
    1QTZ  O3037 3037   5.014   0.304   0.177
    1QTZ  O3038 3038   5.602   0.186   0.525
    1QTZ  O3039 3039   5.214   0.142   0.580
    1QTZ  O3040 3040   5.703   0.119   1.023
    1QTZ  O3041 3041   5.444   0.163   0.114
    1QTZ  O3042 3042   5.712   0.102   0.034
    1QTZ  O3043 3043   5.128   0.063   0.992
    1QTZ  O3044 3044   5.424   0.005   0.531
    1QTZ  O3045 3045   5.100   0.368   0.433
    1QTZ  O3046 3046   5.605   0.287   0.817
    1QTZ  O3047 3047   5.184   0.227   0.003
    1QTZ  Si304 3048   5.870   0.167   0.084
    1QTZ  Si304 3049   5.291   0.103   0.985
    1QTZ  Si305 3050   5.571   0.034   0.456
    1QTZ  Si305 3051   5.134   0.288   0.582
    1QTZ  Si305 3052   5.649   0.273   0.988
    1QTZ  Si305 3053   5.341   0.288   0.063
    1QTZ  Si305 3054   5.385   0.348   1.166
    1QTZ  Si305 3055   5.117   0.402   0.265
    1QTZ  Si305 3056   5.661   0.288   0.650
    1QTZ  Si305 3057   5.314   0.034   0.660
    1QTZ  Si305 3058   5.827   0.026   1.086
    1QTZ  Si305 3059   5.559   0.040   0.105
    1QTZ  O3060 3060   5.349   0.054   2.413
    1QTZ  O3061 3061   5.899   0.006   1.533
    1QTZ  O3062 3062   5.595   3.421   2.064
    1QTZ  O3063 3063   5.150   0.390   2.010
    1QTZ  O3064 3064   5.753   0.412   2.475
    1QTZ  O3065 3065   5.495   0.368   1.567
    1QTZ  O3066 3066   5.485   0.350   2.556
    1QTZ  O3067 3067   5.236   0.311   1.598
    1QTZ  O3068 3068   5.774   0.253   2.058
    1QTZ  O3069 3069   5.263   0.118   2.157
    1QTZ  O3070 3070   5.853   0.057   1.257
    1QTZ  O3071 3071   5.592   0.038   1.772
    1QTZ  O3072 3072   5.282   0.309   2.379
    1QTZ  O3073 3073   5.002   0.255   1.484
    1QTZ  O3074 3074   5.539   0.181   2.031
    1QTZ  O3075 3075   5.134   0.141   1.918
    1QTZ  O3076 3076   5.740   0.166   2.564
    1QTZ  O3077 3077   5.420   0.121   1.551
    1QTZ  O3078 3078   5.659   0.057   1.476
    1QTZ  O3079 3079   5.095   0.105   2.388
    1QTZ  O3080 3080   5.373   0.012   1.928
    1QTZ  O3081 3081   5.010   0.333   1.768
    1QTZ  O3082 3082   5.612   0.255   2.311
    1QTZ  O3083 3083   5.345   0.307   1.332
    1QTZ  Si308 3084   5.813   0.099   1.423
    1QTZ  Si308 3085   5.246   0.152   2.325
    1QTZ  Si308 3086   5.536   0.039   1.939
    1QTZ  Si308 3087   5.049   0.282   1.930
    1QTZ  Si308 3088   5.638   0.288   2.485
    1QTZ  Si308 3089   5.371   0.275   1.503
    1QTZ  Si309 3090   5.327   0.415   2.506
    1QTZ  Si309 3091   5.073   0.352   1.605
    1QTZ  Si309 3092   5.627   0.283   2.133
    1QTZ  Si309 3093   5.230   0.039   2.008
    1QTZ  Si309 3094   5.856   0.038   2.526
    1QTZ  Si309 3095   5.549   0.024   1.602
    1QTZ  O3096 3096   5.362   0.505   1.106
    1QTZ  O3097 3097   5.915   0.559   0.210
    1QTZ  O3098 3098   5.657   0.430   0.559
    1QTZ  O3099 3099   5.228   0.889   0.673
    1QTZ  O3100 3100   5.778   0.868   1.038
    1QTZ  O3101 3101   5.457   0.913   0.026
    1QTZ  O3102 3102   5.539   0.804   1.114
    1QTZ  O3103 3103   5.267   0.853   0.202
    1QTZ  O3104 3104   5.824   0.758   0.661
    1QTZ  O3105 3105   5.353   0.582   0.822
    1QTZ  O3106 3106   5.585   0.505   0.279
    1QTZ  O3107 3107   5.299   0.753   1.057
    1QTZ  O3108 3108   5.014   0.802   0.177
    1QTZ  O3109 3109   5.602   0.684   0.525
    1QTZ  O3110 3110   5.213   0.640   0.581
    1QTZ  O3111 3111   5.702   0.617   1.023
    1QTZ  O3112 3112   5.444   0.661   0.114
    1QTZ  O3113 3113   5.712   0.600   0.034
    1QTZ  O3114 3114   5.128   0.561   0.992
    1QTZ  O3115 3115   5.423   0.503   0.531
    1QTZ  O3116 3116   5.100   0.866   0.433
    1QTZ  O3117 3117   5.605   0.785   0.817
    1QTZ  O3118 3118   5.184   0.725   0.003
    1QTZ  Si311 3119   5.870   0.665   0.084
    1QTZ  Si312 3120   5.291   0.601   0.985
    1QTZ  Si312 3121   5.571   0.532   0.456
    1QTZ  Si312 3122   5.133   0.786   0.582
    1QTZ  Si312 3123   5.649   0.771   0.988
    1QTZ  Si312 3124   5.341   0.786   0.064
    1QTZ  Si312 3125   5.385   0.846   1.167
    1QTZ  Si312 3126   5.117   0.900   0.265
    1QTZ  Si312 3127   5.661   0.785   0.650
    1QTZ  Si312 3128   5.314   0.532   0.660
    1QTZ  Si312 3129   5.826   0.524   1.087
    1QTZ  Si313 3130   5.559   0.538   0.105
    1QTZ  O3131 3131   5.349   0.552   2.413
    1QTZ  O3132 3132   5.898   0.504   1.533
    1QTZ  O3133 3133   5.596   0.434   2.064
    1QTZ  O3134 3134   5.150   0.887   2.010
    1QTZ  O3135 3135   5.753   0.909   2.476
    1QTZ  O3136 3136   5.495   0.866   1.566
    1QTZ  O3137 3137   5.485   0.848   2.556
    1QTZ  O3138 3138   5.236   0.809   1.598
    1QTZ  O3139 3139   5.773   0.753   2.060
    1QTZ  O3140 3140   5.264   0.616   2.157
    1QTZ  O3141 3141   5.853   0.556   1.257
    1QTZ  O3142 3142   5.593   0.536   1.773
    1QTZ  O3143 3143   5.281   0.807   2.380
    1QTZ  O3144 3144   5.002   0.753   1.484
    1QTZ  O3145 3145   5.539   0.679   2.031
    1QTZ  O3146 3146   5.136   0.638   1.918
    1QTZ  O3147 3147   5.740   0.664   2.565
    1QTZ  O3148 3148   5.420   0.619   1.552
    1QTZ  O3149 3149   5.659   0.554   1.476
    1QTZ  O3150 3150   5.096   0.602   2.389
    1QTZ  O3151 3151   5.374   0.508   1.929
    1QTZ  O3152 3152   5.011   0.829   1.768
    1QTZ  O3153 3153   5.611   0.753   2.311
    1QTZ  O3154 3154   5.345   0.804   1.332
    1QTZ  Si315 3155   5.812   0.597   1.423
    1QTZ  Si315 3156   5.246   0.650   2.325
    1QTZ  Si315 3157   5.537   0.536   1.940
    1QTZ  Si315 3158   5.049   0.779   1.930
    1QTZ  Si315 3159   5.637   0.786   2.485
    1QTZ  Si316 3160   5.371   0.773   1.503
    1QTZ  Si316 3161   5.326   0.913   2.506
    1QTZ  Si316 3162   5.073   0.849   1.605
    1QTZ  Si316 3163   5.625   0.781   2.134
    1QTZ  Si316 3164   5.231   0.536   2.008
    1QTZ  Si316 3165   5.856   0.536   2.526
    1QTZ  Si316 3166   5.549   0.522   1.602
    1QTZ  O3167 3167   5.362   1.003   1.107
    1QTZ  O3168 3168   5.915   1.057   0.210
    1QTZ  O3169 3169   5.658   0.928   0.559
    1QTZ  O3170 3170   5.227   1.386   0.673
    1QTZ  O3171 3171   5.778   1.366   1.038
    1QTZ  O3172 3172   5.457   1.411   0.025
    1QTZ  O3173 3173   5.539   1.302   1.114
    1QTZ  O3174 3174   5.267   1.350   0.202
    1QTZ  O3175 3175   5.825   1.257   0.662
    1QTZ  O3176 3176   5.353   1.080   0.823
    1QTZ  O3177 3177   5.585   1.003   0.279
    1QTZ  O3178 3178   5.299   1.251   1.057
    1QTZ  O3179 3179   5.014   1.299   0.177
    1QTZ  O3180 3180   5.603   1.182   0.526
    1QTZ  O3181 3181   5.214   1.138   0.580
    1QTZ  O3182 3182   5.702   1.115   1.024
    1QTZ  O3183 3183   5.444   1.159   0.115
    1QTZ  O3184 3184   5.712   1.098   0.034
    1QTZ  O3185 3185   5.128   1.058   0.993
    1QTZ  O3186 3186   5.424   1.002   0.531
    1QTZ  O3187 3187   5.100   1.364   0.433
    1QTZ  O3188 3188   5.605   1.283   0.818
    1QTZ  O3189 3189   5.184   1.222   0.003
    1QTZ  Si319 3190   5.870   1.163   0.084
    1QTZ  Si319 3191   5.291   1.099   0.985
    1QTZ  Si319 3192   5.571   1.030   0.457
    1QTZ  Si319 3193   5.133   1.284   0.582
    1QTZ  Si319 3194   5.649   1.269   0.988
    1QTZ  Si319 3195   5.341   1.283   0.064
    1QTZ  Si319 3196   5.385   1.344   1.167
    1QTZ  Si319 3197   5.117   1.397   0.265
    1QTZ  Si319 3198   5.662   1.283   0.651
    1QTZ  Si319 3199   5.314   1.030   0.660
    1QTZ  Si320 3200   5.826   1.022   1.087
    1QTZ  Si320 3201   5.560   1.035   0.105
    1QTZ  O3202 3202   5.348   1.049   2.413
    1QTZ  O3203 3203   5.898   1.002   1.534
    1QTZ  O3204 3204   5.593   0.933   2.065
    1QTZ  O3205 3205   5.150   1.385   2.010
    1QTZ  O3206 3206   5.753   1.407   2.475
    1QTZ  O3207 3207   5.495   1.363   1.567
    1QTZ  O3208 3208   5.485   1.346   2.556
    1QTZ  O3209 3209   5.235   1.307   1.598
    1QTZ  O3210 3210   5.774   1.248   2.058
    1QTZ  O3211 3211   5.262   1.114   2.158
    1QTZ  O3212 3212   5.853   1.052   1.258
    1QTZ  O3213 3213   5.592   1.034   1.773
    1QTZ  O3214 3214   5.281   1.305   2.380
    1QTZ  O3215 3215   5.001   1.251   1.484
    1QTZ  O3216 3216   5.539   1.177   2.031
    1QTZ  O3217 3217   5.133   1.136   1.918
    1QTZ  O3218 3218   5.740   1.161   2.565
    1QTZ  O3219 3219   5.419   1.117   1.552
    1QTZ  O3220 3220   5.658   1.053   1.476
    1QTZ  O3221 3221   5.095   1.101   2.389
    1QTZ  O3222 3222   5.372   1.008   1.928
    1QTZ  O3223 3223   5.010   1.329   1.768
    1QTZ  O3224 3224   5.612   1.251   2.311
    1QTZ  O3225 3225   5.344   1.302   1.333
    1QTZ  Si322 3226   5.812   1.094   1.423
    1QTZ  Si322 3227   5.245   1.148   2.325
    1QTZ  Si322 3228   5.535   1.034   1.940
    1QTZ  Si322 3229   5.048   1.278   1.931
    1QTZ  Si323 3230   5.638   1.283   2.485
    1QTZ  Si323 3231   5.371   1.271   1.504
    1QTZ  Si323 3232   5.327   1.411   2.506
    1QTZ  Si323 3233   5.072   1.347   1.606
    1QTZ  Si323 3234   5.627   1.278   2.133
    1QTZ  Si323 3235   5.229   1.034   2.008
    1QTZ  Si323 3236   5.856   1.034   2.526
    1QTZ  Si323 3237   5.548   1.020   1.602
    1QTZ  O3238 3238   5.361   1.500   1.107
    1QTZ  O3239 3239   5.915   1.555   0.210
    1QTZ  O3240 3240   5.658   1.426   0.559
    1QTZ  O3241 3241   5.229   1.884   0.672
    1QTZ  O3242 3242   5.778   1.863   1.037
    1QTZ  O3243 3243   5.457   1.909   0.025
    1QTZ  O3244 3244   5.539   1.799   1.114
    1QTZ  O3245 3245   5.268   1.848   0.201
    1QTZ  O3246 3246   5.823   1.753   0.661
    1QTZ  O3247 3247   5.353   1.577   0.823
    1QTZ  O3248 3248   5.585   1.500   0.279
    1QTZ  O3249 3249   5.299   1.749   1.057
    1QTZ  O3250 3250   5.014   1.797   0.177
    1QTZ  O3251 3251   5.601   1.679   0.525
    1QTZ  O3252 3252   5.214   1.635   0.581
    1QTZ  O3253 3253   5.703   1.612   1.023
    1QTZ  O3254 3254   5.444   1.657   0.115
    1QTZ  O3255 3255   5.712   1.595   0.034
    1QTZ  O3256 3256   5.128   1.557   0.992
    1QTZ  O3257 3257   5.423   1.498   0.532
    1QTZ  O3258 3258   5.100   1.862   0.433
    1QTZ  O3259 3259   5.605   1.780   0.817
    1QTZ  O3260 3260   5.184   1.720   0.003
    1QTZ  Si326 3261   5.870   1.660   0.084
    1QTZ  Si326 3262   5.291   1.597   0.985
    1QTZ  Si326 3263   5.571   1.527   0.457
    1QTZ  Si326 3264   5.134   1.782   0.582
    1QTZ  Si326 3265   5.649   1.766   0.987
    1QTZ  Si326 3266   5.341   1.781   0.064
    1QTZ  Si326 3267   5.386   1.842   1.166
    1QTZ  Si326 3268   5.117   1.895   0.265
    1QTZ  Si326 3269   5.661   1.781   0.650
    1QTZ  Si327 3270   5.314   1.527   0.660
    1QTZ  Si327 3271   5.827   1.520   1.087
    1QTZ  Si327 3272   5.559   1.533   0.105
    1QTZ  O3273 3273   5.349   1.547   2.413
    1QTZ  O3274 3274   5.898   1.499   1.533
    1QTZ  O3275 3275   5.597   1.430   2.064
    1QTZ  O3276 3276   5.150   1.883   2.009
    1QTZ  O3277 3277   5.753   1.905   2.476
    1QTZ  O3278 3278   5.496   1.861   1.566
    1QTZ  O3279 3279   5.485   1.844   2.556
    1QTZ  O3280 3280   5.236   1.805   1.598
    1QTZ  O3281 3281   5.774   1.749   2.060
    1QTZ  O3282 3282   5.264   1.612   2.157
    1QTZ  O3283 3283   5.853   1.551   1.258
    1QTZ  O3284 3284   5.593   1.532   1.773
    1QTZ  O3285 3285   5.281   1.803   2.380
    1QTZ  O3286 3286   5.002   1.749   1.483
    1QTZ  O3287 3287   5.540   1.674   2.031
    1QTZ  O3288 3288   5.137   1.634   1.917
    1QTZ  O3289 3289   5.740   1.659   2.565
    1QTZ  O3290 3290   5.420   1.614   1.552
    1QTZ  O3291 3291   5.659   1.549   1.476
    1QTZ  O3292 3292   5.096   1.598   2.388
    1QTZ  O3293 3293   5.374   1.504   1.929
    1QTZ  O3294 3294   5.011   1.825   1.767
    1QTZ  O3295 3295   5.611   1.749   2.311
    1QTZ  O3296 3296   5.345   1.800   1.332
    1QTZ  Si329 3297   5.812   1.592   1.424
    1QTZ  Si329 3298   5.246   1.645   2.325
    1QTZ  Si329 3299   5.537   1.532   1.940
    1QTZ  Si330 3300   5.049   1.775   1.930
    1QTZ  Si330 3301   5.637   1.781   2.485
    1QTZ  Si330 3302   5.372   1.768   1.503
    1QTZ  Si330 3303   5.327   1.909   2.506
    1QTZ  Si330 3304   5.073   1.845   1.605
    1QTZ  Si330 3305   5.625   1.777   2.134
    1QTZ  Si330 3306   5.231   1.532   2.008
    1QTZ  Si330 3307   5.856   1.532   2.527
    1QTZ  Si330 3308   5.549   1.517   1.602
    1QTZ  O3309 3309   5.362   1.998   1.106
    1QTZ  O3310 3310   5.916   2.052   0.210
    1QTZ  O3311 3311   5.658   1.923   0.559
    1QTZ  O3312 3312   5.227   2.382   0.672
    1QTZ  O3313 3313   5.778   2.361   1.038
    1QTZ  O3314 3314   5.457   2.406   0.025
    1QTZ  O3315 3315   5.539   2.297   1.114
    1QTZ  O3316 3316   5.267   2.345   0.201
    1QTZ  O3317 3317   5.825   2.253   0.662
    1QTZ  O3318 3318   5.353   2.076   0.822
    1QTZ  O3319 3319   5.586   1.998   0.279
    1QTZ  O3320 3320   5.299   2.247   1.056
    1QTZ  O3321 3321   5.014   2.295   0.177
    1QTZ  O3322 3322   5.604   2.177   0.525
    1QTZ  O3323 3323   5.213   2.133   0.580
    1QTZ  O3324 3324   5.702   2.110   1.024
    1QTZ  O3325 3325   5.444   2.154   0.114
    1QTZ  O3326 3326   5.712   2.093   0.034
    1QTZ  O3327 3327   5.128   2.054   0.992
    1QTZ  O3328 3328   5.424   1.998   0.530
    1QTZ  O3329 3329   5.100   2.359   0.432
    1QTZ  O3330 3330   5.606   2.278   0.817
    1QTZ  O3331 3331   5.184   2.217   0.003
    1QTZ  Si333 3332   5.870   2.158   0.084
    1QTZ  Si333 3333   5.291   2.094   0.985
    1QTZ  Si333 3334   5.572   2.026   0.456
    1QTZ  Si333 3335   5.133   2.279   0.582
    1QTZ  Si333 3336   5.649   2.264   0.988
    1QTZ  Si333 3337   5.341   2.279   0.063
    1QTZ  Si333 3338   5.385   2.339   1.166
    1QTZ  Si333 3339   5.117   2.393   0.264
    1QTZ  Si334 3340   5.662   2.279   0.650
    1QTZ  Si334 3341   5.315   2.026   0.659
    1QTZ  Si334 3342   5.826   2.017   1.087
    1QTZ  Si334 3343   5.560   2.031   0.105
    1QTZ  O3344 3344   5.348   2.045   2.413
    1QTZ  O3345 3345   5.898   1.997   1.534
    1QTZ  O3346 3346   5.594   1.928   2.065
    1QTZ  O3347 3347   5.151   2.381   2.009
    1QTZ  O3348 3348   5.753   2.403   2.475
    1QTZ  O3349 3349   5.495   2.359   1.566
    1QTZ  O3350 3350   5.485   2.341   2.555
    1QTZ  O3351 3351   5.236   2.303   1.598
    1QTZ  O3352 3352   5.774   2.244   2.058
    1QTZ  O3353 3353   5.263   2.109   2.157
    1QTZ  O3354 3354   5.853   2.048   1.257
    1QTZ  O3355 3355   5.592   2.029   1.773
    1QTZ  O3356 3356   5.282   2.300   2.379
    1QTZ  O3357 3357   5.001   2.246   1.484
    1QTZ  O3358 3358   5.539   2.172   2.031
    1QTZ  O3359 3359   5.134   2.132   1.918
    1QTZ  O3360 3360   5.740   2.157   2.564
    1QTZ  O3361 3361   5.420   2.112   1.552
    1QTZ  O3362 3362   5.659   2.048   1.476
    1QTZ  O3363 3363   5.095   2.096   2.389
    1QTZ  O3364 3364   5.372   2.003   1.928
    1QTZ  O3365 3365   5.010   2.324   1.768
    1QTZ  O3366 3366   5.612   2.246   2.310
    1QTZ  O3367 3367   5.345   2.298   1.332
    1QTZ  Si336 3368   5.812   2.090   1.423
    1QTZ  Si336 3369   5.246   2.143   2.325
    1QTZ  Si337 3370   5.535   2.030   1.939
    1QTZ  Si337 3371   5.049   2.273   1.930
    1QTZ  Si337 3372   5.638   2.279   2.484
    1QTZ  Si337 3373   5.371   2.266   1.503
    1QTZ  Si337 3374   5.327   2.406   2.505
    1QTZ  Si337 3375   5.073   2.343   1.605
    1QTZ  Si337 3376   5.627   2.274   2.133
    1QTZ  Si337 3377   5.229   2.029   2.008
    1QTZ  Si337 3378   5.856   2.029   2.526
    1QTZ  Si337 3379   5.549   2.015   1.602
    1QTZ  O3380 3380   5.361   2.496   1.106
    1QTZ  O3381 3381   5.916   2.550   0.210
    1QTZ  O3382 3382   5.658   2.421   0.559
    1QTZ  O3383 3383   5.229   2.880   0.672
    1QTZ  O3384 3384   5.778   2.859   1.037
    1QTZ  O3385 3385   5.457   2.904   0.025
    1QTZ  O3386 3386   5.539   2.794   1.113
    1QTZ  O3387 3387   5.268   2.843   0.201
    1QTZ  O3388 3388   5.824   2.749   0.661
    1QTZ  O3389 3389   5.353   2.573   0.822
    1QTZ  O3390 3390   5.585   2.495   0.279
    1QTZ  O3391 3391   5.299   2.744   1.056
    1QTZ  O3392 3392   5.014   2.792   0.176
    1QTZ  O3393 3393   5.601   2.674   0.525
    1QTZ  O3394 3394   5.214   2.631   0.580
    1QTZ  O3395 3395   5.703   2.608   1.023
    1QTZ  O3396 3396   5.444   2.652   0.114
    1QTZ  O3397 3397   5.712   2.591   0.034
    1QTZ  O3398 3398   5.128   2.552   0.992
    1QTZ  O3399 3399   5.423   2.493   0.531
    1QTZ  O3400 3400   5.100   2.857   0.432
    1QTZ  O3401 3401   5.605   2.776   0.817
    1QTZ  O3402 3402   5.184   2.715   0.002
    1QTZ  Si340 3403   5.870   2.656   0.084
    1QTZ  Si340 3404   5.291   2.592   0.985
    1QTZ  Si340 3405   5.571   2.523   0.456
    1QTZ  Si340 3406   5.134   2.777   0.582
    1QTZ  Si340 3407   5.649   2.761   0.987
    1QTZ  Si340 3408   5.341   2.777   0.063
    1QTZ  Si340 3409   5.386   2.837   1.166
    1QTZ  Si341 3410   5.117   2.891   0.264
    1QTZ  Si341 3411   5.661   2.776   0.650
    1QTZ  Si341 3412   5.314   2.522   0.660
    1QTZ  Si341 3413   5.827   2.515   1.086
    1QTZ  Si341 3414   5.560   2.528   0.105
    1QTZ  O3415 3415   5.349   2.543   2.413
    1QTZ  O3416 3416   5.899   2.495   1.533
    1QTZ  O3417 3417   5.596   2.426   2.064
    1QTZ  O3418 3418   5.150   2.878   2.009
    1QTZ  O3419 3419   5.753   2.900   2.475
    1QTZ  O3420 3420   5.496   2.856   1.566
    1QTZ  O3421 3421   5.485   2.839   2.555
    1QTZ  O3422 3422   5.236   2.800   1.597
    1QTZ  O3423 3423   5.774   2.743   2.059
    1QTZ  O3424 3424   5.264   2.607   2.157
    1QTZ  O3425 3425   5.853   2.546   1.257
    1QTZ  O3426 3426   5.593   2.527   1.772
    1QTZ  O3427 3427   5.282   2.798   2.379
    1QTZ  O3428 3428   5.002   2.744   1.483
    1QTZ  O3429 3429   5.540   2.670   2.031
    1QTZ  O3430 3430   5.136   2.629   1.917
    1QTZ  O3431 3431   5.740   2.655   2.564
    1QTZ  O3432 3432   5.420   2.610   1.551
    1QTZ  O3433 3433   5.659   2.545   1.475
    1QTZ  O3434 3434   5.096   2.594   2.388
    1QTZ  O3435 3435   5.374   2.500   1.928
    1QTZ  O3436 3436   5.011   2.821   1.767
    1QTZ  O3437 3437   5.612   2.744   2.311
    1QTZ  O3438 3438   5.345   2.796   1.332
    1QTZ  Si343 3439   5.813   2.588   1.423
    1QTZ  Si344 3440   5.246   2.641   2.325
    1QTZ  Si344 3441   5.537   2.527   1.939
    1QTZ  Si344 3442   5.049   2.770   1.930
    1QTZ  Si344 3443   5.638   2.777   2.485
    1QTZ  Si344 3444   5.372   2.764   1.503
    1QTZ  Si344 3445   5.327   2.904   2.506
    1QTZ  Si344 3446   5.073   2.840   1.605
    1QTZ  Si344 3447   5.626   2.772   2.133
    1QTZ  Si344 3448   5.231   2.527   2.008
    1QTZ  Si344 3449   5.856   2.527   2.526
    1QTZ  Si345 3450   5.549   2.513   1.602
    1QTZ  O3451 3451   5.362   2.993   1.106
    1QTZ  O3452 3452   5.916   3.048   0.209
    1QTZ  O3453 3453   5.658   2.919   0.558
    1QTZ  O3454 3454   5.227   3.377   0.672
    1QTZ  O3455 3455   5.778   3.356   1.037
    1QTZ  O3456 3456   5.457   3.402   0.025
    1QTZ  O3457 3457   5.539   3.293   1.113
    1QTZ  O3458 3458   5.267   3.341   0.201
    1QTZ  O3459 3459   5.825   3.248   0.661
    1QTZ  O3460 3460   5.353   3.071   0.822
    1QTZ  O3461 3461   5.586   2.994   0.278
    1QTZ  O3462 3462   5.299   3.242   1.056
    1QTZ  O3463 3463   5.014   3.290   0.177
    1QTZ  O3464 3464   5.604   3.173   0.524
    1QTZ  O3465 3465   5.213   3.129   0.580
    1QTZ  O3466 3466   5.702   3.106   1.023
    1QTZ  O3467 3467   5.444   3.150   0.114
    1QTZ  O3468 3468   5.712   3.089   0.033
    1QTZ  O3469 3469   5.128   3.049   0.992
    1QTZ  O3470 3470   5.424   2.993   0.530
    1QTZ  O3471 3471   5.100   3.355   0.432
    1QTZ  O3472 3472   5.606   3.273   0.817
    1QTZ  O3473 3473   5.184   3.213   0.003
    1QTZ  Si347 3474   5.870   3.154   0.083
    1QTZ  Si347 3475   5.291   3.090   0.985
    1QTZ  Si347 3476   5.572   3.021   0.456
    1QTZ  Si347 3477   5.133   3.275   0.582
    1QTZ  Si347 3478   5.649   3.259   0.987
    1QTZ  Si347 3479   5.341   3.274   0.063
    1QTZ  Si348 3480   5.385   3.335   1.166
    1QTZ  Si348 3481   5.117   3.388   0.265
    1QTZ  Si348 3482   5.662   3.274   0.650
    1QTZ  Si348 3483   5.315   3.021   0.659
    1QTZ  Si348 3484   5.827   3.013   1.086
    1QTZ  Si348 3485   5.560   3.026   0.104
    1QTZ  O3486 3486   5.349   3.040   2.413
    1QTZ  O3487 3487   5.899   2.992   1.533
    1QTZ  O3488 3488   5.595   2.923   2.064
    1QTZ  O3489 3489   5.150   3.376   2.009
    1QTZ  O3490 3490   5.753   3.398   2.475
    1QTZ  O3491 3491   5.495   3.354   1.566
    1QTZ  O3492 3492   5.485   3.337   2.555
    1QTZ  O3493 3493   5.236   3.298   1.597
    1QTZ  O3494 3494   5.774   3.241   2.058
    1QTZ  O3495 3495   5.263   3.105   2.157
    1QTZ  O3496 3496   5.853   3.044   1.257
    1QTZ  O3497 3497   5.593   3.025   1.772
    1QTZ  O3498 3498   5.282   3.296   2.379
    1QTZ  O3499 3499   5.002   3.242   1.483
    1QTZ  O3500 3500   5.539   3.167   2.031
    1QTZ  O3501 3501   5.136   3.127   1.917
    1QTZ  O3502 3502   5.740   3.153   2.564
    1QTZ  O3503 3503   5.420   3.107   1.551
    1QTZ  O3504 3504   5.659   3.043   1.476
    1QTZ  O3505 3505   5.096   3.091   2.388
    1QTZ  O3506 3506   5.373   2.998   1.928
    1QTZ  O3507 3507   5.011   3.319   1.767
    1QTZ  O3508 3508   5.612   3.242   2.310
    1QTZ  O3509 3509   5.345   3.293   1.332
    1QTZ  Si351 3510   5.813   3.085   1.423
    1QTZ  Si351 3511   5.246   3.139   2.325
    1QTZ  Si351 3512   5.536   3.025   1.939
    1QTZ  Si351 3513   5.049   3.268   1.930
    1QTZ  Si351 3514   5.637   3.274   2.484
    1QTZ  Si351 3515   5.371   3.261   1.503
    1QTZ  Si351 3516   5.327   3.402   2.506
    1QTZ  Si351 3517   5.073   3.338   1.605
    1QTZ  Si351 3518   5.626   3.269   2.133
    1QTZ  Si351 3519   5.230   3.025   2.008
    1QTZ  Si352 3520   5.856   3.025   2.526
    1QTZ  Si352 3521   5.549   3.010   1.602
    1QTZ  O3522 3522   6.196   0.007   1.105
    1QTZ  O3523 3523   6.492   3.417   0.558
    1QTZ  O3524 3524   6.062   0.391   0.672
    1QTZ  O3525 3525   6.612   0.370   1.037
    1QTZ  O3526 3526   6.291   0.416   0.025
    1QTZ  O3527 3527   6.373   0.306   1.113
    1QTZ  O3528 3528   6.101   0.355   0.201
    1QTZ  O3529 3529   6.658   0.261   0.661
    1QTZ  O3530 3530   6.187   0.085   0.821
    1QTZ  O3531 3531   6.420   0.007   0.278
    1QTZ  O3532 3532   6.133   0.255   1.056
    1QTZ  O3533 3533   5.848   0.304   0.177
    1QTZ  O3534 3534   6.437   0.186   0.524
    1QTZ  O3535 3535   6.047   0.142   0.580
    1QTZ  O3536 3536   6.536   0.119   1.023
    1QTZ  O3537 3537   6.278   0.164   0.114
    1QTZ  O3538 3538   6.546   0.103   0.033
    1QTZ  O3539 3539   5.962   0.063   0.991
    1QTZ  O3540 3540   6.257   0.006   0.530
    1QTZ  O3541 3541   5.934   0.369   0.432
    1QTZ  O3542 3542   6.439   0.287   0.816
    1QTZ  O3543 3543   6.018   0.227   0.002
    1QTZ  Si354 3544   3.367   0.167   0.083
    1QTZ  Si354 3545   6.125   0.103   0.984
    1QTZ  Si354 3546   6.405   0.035   0.455
    1QTZ  Si354 3547   5.967   0.288   0.582
    1QTZ  Si354 3548   6.483   0.273   0.987
    1QTZ  Si354 3549   6.175   0.288   0.063
    1QTZ  Si355 3550   6.219   0.348   1.166
    1QTZ  Si355 3551   5.951   0.402   0.264
    1QTZ  Si355 3552   6.496   0.288   0.649
    1QTZ  Si355 3553   6.148   0.034   0.659
    1QTZ  Si355 3554   6.660   0.026   1.086
    1QTZ  Si355 3555   6.394   0.040   0.104
    1QTZ  O3556 3556   6.183   0.054   2.413
    1QTZ  O3557 3557   6.430   3.421   2.064
    1QTZ  O3558 3558   5.984   0.390   2.009
    1QTZ  O3559 3559   6.587   0.411   2.475
    1QTZ  O3560 3560   6.329   0.368   1.566
    1QTZ  O3561 3561   6.319   0.350   2.555
    1QTZ  O3562 3562   6.070   0.312   1.597
    1QTZ  O3563 3563   6.608   0.255   2.059
    1QTZ  O3564 3564   6.098   0.118   2.157
    1QTZ  O3565 3565   6.427   0.038   1.772
    1QTZ  O3566 3566   6.115   0.309   2.379
    1QTZ  O3567 3567   5.836   0.255   1.483
    1QTZ  O3568 3568   6.373   0.181   2.030
    1QTZ  O3569 3569   5.970   0.140   1.917
    1QTZ  O3570 3570   6.574   0.166   2.564
    1QTZ  O3571 3571   6.254   0.121   1.551
    1QTZ  O3572 3572   6.493   0.057   1.475
    1QTZ  O3573 3573   5.930   0.105   2.388
    1QTZ  O3574 3574   6.208   0.011   1.928
    1QTZ  O3575 3575   5.845   0.332   1.767
    1QTZ  O3576 3576   6.445   0.255   2.310
    1QTZ  O3577 3577   6.179   0.306   1.332
    1QTZ  Si357 3578   6.646   0.099   1.423
    1QTZ  Si357 3579   6.080   0.152   2.324
    1QTZ  Si358 3580   6.370   0.038   1.939
    1QTZ  Si358 3581   5.883   0.281   1.930
    1QTZ  Si358 3582   6.471   0.288   2.484
    1QTZ  Si358 3583   6.205   0.275   1.502
    1QTZ  Si358 3584   6.161   0.415   2.505
    1QTZ  Si358 3585   5.907   0.352   1.604
    1QTZ  Si358 3586   6.459   0.283   2.133
    1QTZ  Si358 3587   6.064   0.038   2.007
    1QTZ  Si358 3588   6.690   0.038   2.526
    1QTZ  Si358 3589   6.383   0.024   1.601
    1QTZ  O3590 3590   6.196   0.505   1.106
    1QTZ  O3591 3591   6.492   0.430   0.558
    1QTZ  O3592 3592   6.061   0.888   0.672
    1QTZ  O3593 3593   6.612   0.868   1.038
    1QTZ  O3594 3594   6.291   0.914   0.025
    1QTZ  O3595 3595   6.373   0.804   1.114
    1QTZ  O3596 3596   6.101   0.853   0.201
    1QTZ  O3597 3597   6.658   0.759   0.661
    1QTZ  O3598 3598   6.187   0.582   0.822
    1QTZ  O3599 3599   6.419   0.505   0.279
    1QTZ  O3600 3600   6.133   0.753   1.056
    1QTZ  O3601 3601   5.848   0.802   0.177
    1QTZ  O3602 3602   6.437   0.684   0.525
    1QTZ  O3603 3603   6.048   0.640   0.580
    1QTZ  O3604 3604   6.536   0.617   1.023
    1QTZ  O3605 3605   6.278   0.661   0.114
    1QTZ  O3606 3606   6.546   0.600   0.034
    1QTZ  O3607 3607   5.962   0.561   0.992
    1QTZ  O3608 3608   6.258   0.503   0.531
    1QTZ  O3609 3609   5.934   0.866   0.432
    1QTZ  O3610 3610   6.439   0.785   0.817
    1QTZ  O3611 3611   6.018   0.725   0.003
    1QTZ  Si361 3612   3.367   0.665   0.084
    1QTZ  Si361 3613   6.125   0.601   0.985
    1QTZ  Si361 3614   6.405   0.532   0.456
    1QTZ  Si361 3615   5.967   0.786   0.582
    1QTZ  Si361 3616   6.483   0.771   0.988
    1QTZ  Si361 3617   6.175   0.786   0.063
    1QTZ  Si361 3618   6.219   0.846   1.166
    1QTZ  Si361 3619   5.951   0.900   0.265
    1QTZ  Si362 3620   6.495   0.786   0.650
    1QTZ  Si362 3621   6.148   0.532   0.660
    1QTZ  Si362 3622   6.660   0.524   1.086
    1QTZ  Si362 3623   6.394   0.538   0.105
    1QTZ  O3624 3624   6.183   0.552   2.413
    1QTZ  O3625 3625   6.428   0.435   2.064
    1QTZ  O3626 3626   5.984   0.887   2.009
    1QTZ  O3627 3627   6.587   0.909   2.475
    1QTZ  O3628 3628   6.329   0.865   1.567
    1QTZ  O3629 3629   6.319   0.848   2.555
    1QTZ  O3630 3630   6.069   0.809   1.598
    1QTZ  O3631 3631   6.608   0.750   2.058
    1QTZ  O3632 3632   6.097   0.616   2.157
    1QTZ  O3633 3633   6.426   0.536   1.772
    1QTZ  O3634 3634   6.116   0.807   2.379
    1QTZ  O3635 3635   5.835   0.753   1.484
    1QTZ  O3636 3636   6.373   0.679   2.030
    1QTZ  O3637 3637   5.968   0.638   1.918
    1QTZ  O3638 3638   6.574   0.663   2.564
    1QTZ  O3639 3639   6.254   0.619   1.551
    1QTZ  O3640 3640   6.493   0.555   1.476
    1QTZ  O3641 3641   5.929   0.603   2.388
    1QTZ  O3642 3642   6.206   0.510   1.927
    1QTZ  O3643 3643   5.844   0.831   1.768
    1QTZ  O3644 3644   6.446   0.753   2.310
    1QTZ  O3645 3645   6.178   0.805   1.332
    1QTZ  Si364 3646   6.646   0.597   1.423
    1QTZ  Si364 3647   6.080   0.650   2.325
    1QTZ  Si364 3648   6.369   0.536   1.939
    1QTZ  Si364 3649   5.882   0.780   1.930
    1QTZ  Si365 3650   6.472   0.785   2.484
    1QTZ  Si365 3651   6.205   0.773   1.503
    1QTZ  Si365 3652   6.161   0.913   2.505
    1QTZ  Si365 3653   5.906   0.850   1.605
    1QTZ  Si365 3654   6.461   0.780   2.133
    1QTZ  Si365 3655   6.063   0.536   2.008
    1QTZ  Si365 3656   6.690   0.536   2.526
    1QTZ  Si365 3657   6.383   0.522   1.601
    1QTZ  O3658 3658   6.195   1.003   1.106
    1QTZ  O3659 3659   6.492   0.928   0.559
    1QTZ  O3660 3660   6.063   1.386   0.672
    1QTZ  O3661 3661   6.612   1.366   1.037
    1QTZ  O3662 3662   6.291   1.411   0.025
    1QTZ  O3663 3663   6.373   1.301   1.113
    1QTZ  O3664 3664   6.101   1.350   0.201
    1QTZ  O3665 3665   6.658   1.256   0.661
    1QTZ  O3666 3666   6.187   1.080   0.822
    1QTZ  O3667 3667   6.419   1.002   0.279
    1QTZ  O3668 3668   6.133   1.251   1.056
    1QTZ  O3669 3669   5.848   1.299   0.177
    1QTZ  O3670 3670   6.436   1.181   0.525
    1QTZ  O3671 3671   6.047   1.138   0.580
    1QTZ  O3672 3672   6.536   1.115   1.023
    1QTZ  O3673 3673   6.278   1.159   0.114
    1QTZ  O3674 3674   6.546   1.098   0.034
    1QTZ  O3675 3675   5.962   1.059   0.992
    1QTZ  O3676 3676   6.257   1.001   0.531
    1QTZ  O3677 3677   5.934   1.364   0.433
    1QTZ  O3678 3678   6.439   1.283   0.817
    1QTZ  O3679 3679   6.018   1.222   0.003
    1QTZ  Si368 3680   3.367   1.163   0.084
    1QTZ  Si368 3681   6.125   1.099   0.985
    1QTZ  Si368 3682   6.405   1.030   0.456
    1QTZ  Si368 3683   5.968   1.284   0.582
    1QTZ  Si368 3684   6.483   1.268   0.987
    1QTZ  Si368 3685   6.175   1.284   0.064
    1QTZ  Si368 3686   6.219   1.344   1.166
    1QTZ  Si368 3687   5.951   1.398   0.265
    1QTZ  Si368 3688   6.495   1.283   0.650
    1QTZ  Si368 3689   6.148   1.029   0.660
    1QTZ  Si369 3690   6.660   1.022   1.087
    1QTZ  Si369 3691   6.393   1.035   0.105
    1QTZ  O3692 3692   6.183   1.049   2.413
    1QTZ  O3693 3693   6.431   0.932   2.064
    1QTZ  O3694 3694   5.984   1.385   2.009
    1QTZ  O3695 3695   6.587   1.407   2.475
    1QTZ  O3696 3696   6.329   1.363   1.566
    1QTZ  O3697 3697   6.319   1.346   2.556
    1QTZ  O3698 3698   6.070   1.307   1.597
    1QTZ  O3699 3699   6.608   1.251   2.060
    1QTZ  O3700 3700   6.098   1.114   2.157
    1QTZ  O3701 3701   6.427   1.034   1.772
    1QTZ  O3702 3702   6.115   1.305   2.380
    1QTZ  O3703 3703   5.836   1.251   1.483
    1QTZ  O3704 3704   6.374   1.176   2.031
    1QTZ  O3705 3705   5.971   1.136   1.917
    1QTZ  O3706 3706   6.574   1.161   2.565
    1QTZ  O3707 3707   6.254   1.116   1.551
    1QTZ  O3708 3708   6.493   1.052   1.476
    1QTZ  O3709 3709   5.930   1.100   2.388
    1QTZ  O3710 3710   6.208   1.006   1.929
    1QTZ  O3711 3711   5.845   1.327   1.767
    1QTZ  O3712 3712   6.445   1.251   2.311
    1QTZ  O3713 3713   6.179   1.302   1.332
    1QTZ  Si371 3714   6.646   1.094   1.423
    1QTZ  Si371 3715   6.080   1.148   2.325
    1QTZ  Si371 3716   6.371   1.034   1.939
    1QTZ  Si371 3717   5.883   1.277   1.930
    1QTZ  Si371 3718   6.471   1.283   2.485
    1QTZ  Si371 3719   6.205   1.270   1.503
    1QTZ  Si372 3720   6.161   1.411   2.506
    1QTZ  Si372 3721   5.907   1.347   1.605
    1QTZ  Si372 3722   6.459   1.279   2.134
    1QTZ  Si372 3723   6.065   1.034   2.008
    1QTZ  Si372 3724   6.690   1.034   2.526
    1QTZ  Si372 3725   6.383   1.019   1.602
    1QTZ  O3726 3726   6.196   1.500   1.106
    1QTZ  O3727 3727   6.492   1.426   0.559
    1QTZ  O3728 3728   6.061   1.884   0.672
    1QTZ  O3729 3729   6.612   1.863   1.038
    1QTZ  O3730 3730   6.291   1.909   0.025
    1QTZ  O3731 3731   6.373   1.800   1.114
    1QTZ  O3732 3732   6.101   1.848   0.201
    1QTZ  O3733 3733   6.659   1.755   0.662
    1QTZ  O3734 3734   6.187   1.578   0.822
    1QTZ  O3735 3735   6.420   1.501   0.279
    1QTZ  O3736 3736   6.133   1.749   1.057
    1QTZ  O3737 3737   5.848   1.797   0.177
    1QTZ  O3738 3738   6.438   1.679   0.525
    1QTZ  O3739 3739   6.048   1.635   0.580
    1QTZ  O3740 3740   6.536   1.612   1.024
    1QTZ  O3741 3741   6.278   1.657   0.114
    1QTZ  O3742 3742   6.546   1.596   0.034
    1QTZ  O3743 3743   5.962   1.556   0.992
    1QTZ  O3744 3744   6.258   1.500   0.531
    1QTZ  O3745 3745   5.934   1.862   0.432
    1QTZ  O3746 3746   6.440   1.781   0.817
    1QTZ  O3747 3747   6.018   1.720   0.003
    1QTZ  Si374 3748   3.368   1.660   0.084
    1QTZ  Si374 3749   6.125   1.597   0.985
    1QTZ  Si375 3750   6.406   1.528   0.456
    1QTZ  Si375 3751   5.967   1.781   0.582
    1QTZ  Si375 3752   6.483   1.766   0.988
    1QTZ  Si375 3753   6.175   1.781   0.063
    1QTZ  Si375 3754   6.219   1.842   1.167
    1QTZ  Si375 3755   5.951   1.895   0.265
    1QTZ  Si375 3756   6.496   1.781   0.650
    1QTZ  Si375 3757   6.149   1.528   0.660
    1QTZ  Si375 3758   6.660   1.519   1.087
    1QTZ  Si375 3759   6.394   1.533   0.105
    1QTZ  O3760 3760   6.183   1.547   2.413
    1QTZ  O3761 3761   6.427   1.430   2.065
    1QTZ  O3762 3762   5.985   1.883   2.009
    1QTZ  O3763 3763   6.587   1.905   2.475
    1QTZ  O3764 3764   6.329   1.861   1.567
    1QTZ  O3765 3765   6.319   1.843   2.555
    1QTZ  O3766 3766   6.069   1.805   1.598
    1QTZ  O3767 3767   6.608   1.745   2.058
    1QTZ  O3768 3768   6.097   1.611   2.157
    1QTZ  O3769 3769   6.426   1.531   1.773
    1QTZ  O3770 3770   6.116   1.803   2.379
    1QTZ  O3771 3771   5.835   1.749   1.484
    1QTZ  O3772 3772   6.373   1.674   2.031
    1QTZ  O3773 3773   5.968   1.634   1.918
    1QTZ  O3774 3774   6.574   1.659   2.564
    1QTZ  O3775 3775   6.254   1.614   1.552
    1QTZ  O3776 3776   6.493   1.550   1.476
    1QTZ  O3777 3777   5.929   1.598   2.389
    1QTZ  O3778 3778   6.206   1.505   1.928
    1QTZ  O3779 3779   5.844   1.826   1.768
    1QTZ  O3780 3780   6.446   1.748   2.310
    1QTZ  O3781 3781   6.179   1.800   1.332
    1QTZ  Si378 3782   6.646   1.592   1.423
    1QTZ  Si378 3783   6.080   1.645   2.325
    1QTZ  Si378 3784   6.369   1.532   1.939
    1QTZ  Si378 3785   5.883   1.776   1.930
    1QTZ  Si378 3786   6.472   1.781   2.484
    1QTZ  Si378 3787   6.205   1.768   1.503
    1QTZ  Si378 3788   6.161   1.908   2.505
    1QTZ  Si378 3789   5.906   1.845   1.605
    1QTZ  Si379 3790   6.461   1.776   2.133
    1QTZ  Si379 3791   6.063   1.532   2.008
    1QTZ  Si379 3792   6.690   1.531   2.526
    1QTZ  Si379 3793   6.383   1.517   1.602
    1QTZ  O3794 3794   6.195   1.998   1.106
    1QTZ  O3795 3795   6.492   1.923   0.559
    1QTZ  O3796 3796   6.063   2.382   0.671
    1QTZ  O3797 3797   6.612   2.361   1.037
    1QTZ  O3798 3798   6.292   2.406   0.024
    1QTZ  O3799 3799   6.373   2.297   1.113
    1QTZ  O3800 3800   6.102   2.346   0.201
    1QTZ  O3801 3801   6.658   2.251   0.660
    1QTZ  O3802 3802   6.187   2.075   0.822
    1QTZ  O3803 3803   6.419   1.998   0.279
    1QTZ  O3804 3804   6.133   2.247   1.056
    1QTZ  O3805 3805   5.849   2.295   0.176
    1QTZ  O3806 3806   6.435   2.177   0.525
    1QTZ  O3807 3807   6.048   2.133   0.580
    1QTZ  O3808 3808   6.537   2.110   1.023
    1QTZ  O3809 3809   6.279   2.154   0.114
    1QTZ  O3810 3810   6.546   2.093   0.034
    1QTZ  O3811 3811   5.962   2.054   0.992
    1QTZ  O3812 3812   6.257   1.995   0.531
    1QTZ  O3813 3813   5.935   2.359   0.432
    1QTZ  O3814 3814   6.439   2.278   0.817
    1QTZ  O3815 3815   6.018   2.217   0.003
    1QTZ  Si381 3816   3.368   2.158   0.084
    1QTZ  Si381 3817   6.125   2.094   0.985
    1QTZ  Si381 3818   6.405   2.025   0.456
    1QTZ  Si381 3819   5.968   2.280   0.582
    1QTZ  Si382 3820   6.483   2.264   0.987
    1QTZ  Si382 3821   6.175   2.279   0.063
    1QTZ  Si382 3822   6.220   2.339   1.166
    1QTZ  Si382 3823   5.952   2.393   0.264
    1QTZ  Si382 3824   6.495   2.278   0.649
    1QTZ  Si382 3825   6.148   2.025   0.660
    1QTZ  Si382 3826   6.661   2.017   1.086
    1QTZ  Si382 3827   6.394   2.030   0.105
    1QTZ  O3828 3828   6.183   2.045   2.413
    1QTZ  O3829 3829   6.431   1.928   2.064
    1QTZ  O3830 3830   5.984   2.380   2.009
    1QTZ  O3831 3831   6.587   2.402   2.475
    1QTZ  O3832 3832   6.330   2.359   1.566
    1QTZ  O3833 3833   6.319   2.342   2.555
    1QTZ  O3834 3834   6.070   2.303   1.597
    1QTZ  O3835 3835   6.608   2.246   2.059
    1QTZ  O3836 3836   6.098   2.109   2.157
    1QTZ  O3837 3837   6.427   2.029   1.772
    1QTZ  O3838 3838   6.116   2.300   2.379
    1QTZ  O3839 3839   5.837   2.246   1.483
    1QTZ  O3840 3840   6.374   2.172   2.031
    1QTZ  O3841 3841   5.970   2.131   1.917
    1QTZ  O3842 3842   6.574   2.157   2.564
    1QTZ  O3843 3843   6.254   2.112   1.551
    1QTZ  O3844 3844   6.493   2.047   1.476
    1QTZ  O3845 3845   5.930   2.096   2.388
    1QTZ  O3846 3846   6.208   2.002   1.928
    1QTZ  O3847 3847   5.845   2.323   1.767
    1QTZ  O3848 3848   6.446   2.247   2.311
    1QTZ  O3849 3849   6.179   2.298   1.332
    1QTZ  Si385 3850   6.647   2.090   1.423
    1QTZ  Si385 3851   6.080   2.143   2.325
    1QTZ  Si385 3852   6.371   2.029   1.939
    1QTZ  Si385 3853   5.884   2.272   1.929
    1QTZ  Si385 3854   6.472   2.279   2.485
    1QTZ  Si385 3855   6.206   2.266   1.502
    1QTZ  Si385 3856   6.161   2.406   2.505
    1QTZ  Si385 3857   5.907   2.343   1.604
    1QTZ  Si385 3858   6.460   2.274   2.133
    1QTZ  Si385 3859   6.065   2.029   2.008
    1QTZ  Si386 3860   6.690   2.029   2.526
    1QTZ  Si386 3861   6.383   2.015   1.602
    1QTZ  O3862 3862   6.197   2.496   1.105
    1QTZ  O3863 3863   6.492   2.421   0.558
    1QTZ  O3864 3864   6.061   2.879   0.672
    1QTZ  O3865 3865   6.612   2.859   1.037
    1QTZ  O3866 3866   6.291   2.904   0.024
    1QTZ  O3867 3867   6.373   2.795   1.113
    1QTZ  O3868 3868   6.101   2.843   0.201
    1QTZ  O3869 3869   6.659   2.750   0.661
    1QTZ  O3870 3870   6.188   2.574   0.821
    1QTZ  O3871 3871   6.420   2.496   0.278
    1QTZ  O3872 3872   6.134   2.744   1.056
    1QTZ  O3873 3873   5.848   2.792   0.176
    1QTZ  O3874 3874   6.438   2.675   0.524
    1QTZ  O3875 3875   6.048   2.631   0.580
    1QTZ  O3876 3876   6.537   2.608   1.023
    1QTZ  O3877 3877   6.278   2.652   0.114
    1QTZ  O3878 3878   6.546   2.591   0.033
    1QTZ  O3879 3879   5.962   2.552   0.991
    1QTZ  O3880 3880   6.258   2.495   0.530
    1QTZ  O3881 3881   5.934   2.857   0.432
    1QTZ  O3882 3882   6.440   2.776   0.816
    1QTZ  O3883 3883   6.018   2.715   0.002
    1QTZ  Si388 3884   3.368   2.656   0.083
    1QTZ  Si388 3885   6.125   2.592   0.984
    1QTZ  Si388 3886   6.406   2.523   0.455
    1QTZ  Si388 3887   5.967   2.777   0.581
    1QTZ  Si388 3888   6.483   2.762   0.987
    1QTZ  Si388 3889   6.175   2.777   0.063
    1QTZ  Si389 3890   6.220   2.837   1.166
    1QTZ  Si389 3891   5.951   2.891   0.264
    1QTZ  Si389 3892   6.497   2.777   0.650
    1QTZ  Si389 3893   6.149   2.524   0.659
    1QTZ  Si389 3894   6.661   2.515   1.086
    1QTZ  Si389 3895   6.394   2.528   0.104
    1QTZ  O3896 3896   6.183   2.543   2.413
    1QTZ  O3897 3897   6.428   2.426   2.064
    1QTZ  O3898 3898   5.985   2.878   2.009
    1QTZ  O3899 3899   6.587   2.900   2.475
    1QTZ  O3900 3900   6.329   2.856   1.566
    1QTZ  O3901 3901   6.319   2.839   2.555
    1QTZ  O3902 3902   6.070   2.800   1.597
    1QTZ  O3903 3903   6.608   2.742   2.058
    1QTZ  O3904 3904   6.097   2.607   2.157
    1QTZ  O3905 3905   6.426   2.527   1.772
    1QTZ  O3906 3906   6.116   2.798   2.379
    1QTZ  O3907 3907   5.836   2.744   1.483
    1QTZ  O3908 3908   6.373   2.670   2.030
    1QTZ  O3909 3909   5.969   2.629   1.917
    1QTZ  O3910 3910   6.574   2.655   2.564
    1QTZ  O3911 3911   6.254   2.610   1.551
    1QTZ  O3912 3912   6.493   2.546   1.475
    1QTZ  O3913 3913   5.930   2.594   2.388
    1QTZ  O3914 3914   6.207   2.500   1.927
    1QTZ  O3915 3915   5.845   2.821   1.767
    1QTZ  O3916 3916   6.446   2.744   2.310
    1QTZ  O3917 3917   6.179   2.795   1.332
    1QTZ  Si391 3918   6.647   2.588   1.423
    1QTZ  Si391 3919   6.080   2.641   2.324
    1QTZ  Si392 3920   6.370   2.527   1.939
    1QTZ  Si392 3921   5.883   2.771   1.930
    1QTZ  Si392 3922   6.472   2.777   2.484
    1QTZ  Si392 3923   6.205   2.764   1.502
    1QTZ  Si392 3924   6.161   2.904   2.505
    1QTZ  Si392 3925   5.907   2.840   1.604
    1QTZ  Si392 3926   6.460   2.772   2.132
    1QTZ  Si392 3927   6.064   2.527   2.007
    1QTZ  Si392 3928   6.690   2.527   2.525
    1QTZ  Si392 3929   6.383   2.513   1.601
    1QTZ  O3930 3930   6.196   2.993   1.106
    1QTZ  O3931 3931   6.492   2.919   0.558
    1QTZ  O3932 3932   6.063   3.377   0.671
    1QTZ  O3933 3933   6.612   3.357   1.037
    1QTZ  O3934 3934   6.291   3.402   0.024
    1QTZ  O3935 3935   6.373   3.292   1.113
    1QTZ  O3936 3936   6.102   3.341   0.200
    1QTZ  O3937 3937   6.658   3.247   0.660
    1QTZ  O3938 3938   6.187   3.070   0.822
    1QTZ  O3939 3939   6.419   2.993   0.278
    1QTZ  O3940 3940   6.133   3.242   1.056
    1QTZ  O3941 3941   5.848   3.290   0.176
    1QTZ  O3942 3942   6.436   3.172   0.525
    1QTZ  O3943 3943   6.048   3.128   0.579
    1QTZ  O3944 3944   6.537   3.106   1.022
    1QTZ  O3945 3945   6.278   3.150   0.114
    1QTZ  O3946 3946   6.546   3.089   0.033
    1QTZ  O3947 3947   5.962   3.050   0.992
    1QTZ  O3948 3948   6.258   2.991   0.531
    1QTZ  O3949 3949   5.934   3.355   0.432
    1QTZ  O3950 3950   6.439   3.274   0.816
    1QTZ  O3951 3951   6.018   3.213   0.002
    1QTZ  Si395 3952   3.368   3.154   0.083
    1QTZ  Si395 3953   6.125   3.090   0.984
    1QTZ  Si395 3954   6.405   3.021   0.456
    1QTZ  Si395 3955   5.968   3.275   0.581
    1QTZ  Si395 3956   6.483   3.259   0.987
    1QTZ  Si395 3957   6.175   3.275   0.063
    1QTZ  Si395 3958   6.220   3.335   1.166
    1QTZ  Si395 3959   5.951   3.388   0.264
    1QTZ  Si396 3960   6.495   3.274   0.649
    1QTZ  Si396 3961   6.148   3.020   0.659
    1QTZ  Si396 3962   6.661   3.013   1.086
    1QTZ  Si396 3963   6.394   3.026   0.104
    1QTZ  O3964 3964   6.183   3.041   2.412
    1QTZ  O3965 3965   6.430   2.923   2.063
    1QTZ  O3966 3966   5.984   3.376   2.009
    1QTZ  O3967 3967   6.587   3.398   2.475
    1QTZ  O3968 3968   6.329   3.354   1.566
    1QTZ  O3969 3969   6.319   3.337   2.555
    1QTZ  O3970 3970   6.070   3.298   1.597
    1QTZ  O3971 3971   6.608   3.240   2.058
    1QTZ  O3972 3972   6.098   3.105   2.156
    1QTZ  O3973 3973   6.427   3.025   1.772
    1QTZ  O3974 3974   6.116   3.296   2.379
    1QTZ  O3975 3975   5.836   3.242   1.483
    1QTZ  O3976 3976   6.374   3.167   2.030
    1QTZ  O3977 3977   5.969   3.127   1.917
    1QTZ  O3978 3978   6.574   3.152   2.564
    1QTZ  O3979 3979   6.254   3.107   1.551
    1QTZ  O3980 3980   6.493   3.043   1.475
    1QTZ  O3981 3981   5.930   3.091   2.388
    1QTZ  O3982 3982   6.208   2.998   1.927
    1QTZ  O3983 3983   5.845   3.319   1.767
    1QTZ  O3984 3984   6.446   3.242   2.310
    1QTZ  O3985 3985   6.179   3.293   1.332
    1QTZ  Si398 3986   6.647   3.085   1.422
    1QTZ  Si398 3987   6.080   3.139   2.324
    1QTZ  Si398 3988   6.370   3.025   1.938
    1QTZ  Si398 3989   5.883   3.268   1.930
    1QTZ  Si399 3990   6.472   3.274   2.484
    1QTZ  Si399 3991   6.205   3.262   1.502
    1QTZ  Si399 3992   6.161   3.402   2.505
    1QTZ  Si399 3993   5.907   3.338   1.604
    1QTZ  Si399 3994   6.461   3.269   2.133
    1QTZ  Si399 3995   6.064   3.025   2.007
    1QTZ  Si399 3996   6.690   3.025   2.526
    1QTZ  Si399 3997   6.383   3.010   1.601
    1QTZ  O3998 3998   3.413   0.061   0.209
    1QTZ  O3999 3999   3.396   0.006   1.533
    1QTZ  O4000 4000   6.687   0.058   1.257
    1QTZ  O4001 4001   3.413   0.559   0.210
    1QTZ  O4002 4002   3.396   0.504   1.533
    1QTZ  O4003 4003   6.687   0.555   1.257
    1QTZ  O4004 4004   3.413   1.057   0.210
    1QTZ  O4005 4005   3.396   1.001   1.533
    1QTZ  O4006 4006   6.687   1.053   1.257
    1QTZ  O4007 4007   3.413   1.555   0.210
    1QTZ  O4008 4008   3.395   1.499   1.533
    1QTZ  O4009 4009   6.687   1.550   1.257
    1QTZ  O4010 4010   3.413   2.052   0.210
    1QTZ  O4011 4011   3.396   1.997   1.533
    1QTZ  O4012 4012   3.351   2.049   1.257
    1QTZ  O4013 4013   3.413   2.550   0.209
    1QTZ  O4014 4014   3.396   2.495   1.533
    1QTZ  O4015 4015   3.350   2.546   1.257
    1QTZ  O4016 4016   3.413   3.048   0.209
    1QTZ  O4017 4017   3.396   2.993   1.532
    1QTZ  O4018 4018   3.351   3.044   1.256
    1QTZ  O4019 4019   6.682   0.304   0.176
    1QTZ  O4020 4020   6.670   0.255   1.483
    1QTZ  O4021 4021   6.682   0.802   0.177
    1QTZ  O4022 4022   6.670   0.753   1.483
    1QTZ  O4023 4023   6.682   1.299   0.177
    1QTZ  O4024 4024   6.669   1.251   1.484
    1QTZ  O4025 4025   6.683   1.797   0.177
    1QTZ  O4026 4026   6.671   1.749   1.483
    1QTZ  O4027 4027   6.683   2.295   0.176
    1QTZ  O4028 4028   6.670   2.246   1.483
    1QTZ  O4029 4029   6.683   2.792   0.176
    1QTZ  O4030 4030   6.671   2.744   1.483
    1QTZ  O4031 4031   6.682   3.290   0.176
    1QTZ  O4032 4032   6.670   3.242   1.483
    1QTZ  O4033 4033   7.030   0.007   1.106
    1QTZ  O4034 4034   7.584   0.061   0.210
    1QTZ  O4035 4035   7.326   3.417   0.558
    1QTZ  O4036 4036   6.896   0.391   0.672
    1QTZ  O4037 4037   7.446   0.370   1.038
    1QTZ  O4038 4038   7.125   0.416   0.025
    1QTZ  O4039 4039   7.207   0.306   1.114
    1QTZ  O4040 4040   6.936   0.355   0.201
    1QTZ  O4041 4041   7.492   0.261   0.661
    1QTZ  O4042 4042   7.021   0.084   0.822
    1QTZ  O4043 4043   7.253   0.007   0.279
    1QTZ  O4044 4044   6.967   0.256   1.056
    1QTZ  O4045 4045   7.270   0.186   0.525
    1QTZ  O4046 4046   6.882   0.142   0.580
    1QTZ  O4047 4047   7.371   0.119   1.023
    1QTZ  O4048 4048   7.112   0.163   0.114
    1QTZ  O4049 4049   7.380   0.102   0.034
    1QTZ  O4050 4050   6.796   0.063   0.992
    1QTZ  O4051 4051   7.092   0.005   0.531
    1QTZ  O4052 4052   6.768   0.368   0.432
    1QTZ  O4053 4053   7.273   0.287   0.817
    1QTZ  O4054 4054   6.852   0.227   0.002
    1QTZ  Si405 4055   7.538   0.167   0.084
    1QTZ  Si405 4056   6.959   0.103   0.985
    1QTZ  Si405 4057   7.239   0.034   0.456
    1QTZ  Si405 4058   6.802   0.288   0.581
    1QTZ  Si405 4059   7.317   0.273   0.988
    1QTZ  Si406 4060   7.009   0.288   0.063
    1QTZ  Si406 4061   7.053   0.348   1.166
    1QTZ  Si406 4062   6.785   0.402   0.264
    1QTZ  Si406 4063   7.329   0.288   0.650
    1QTZ  Si406 4064   6.982   0.034   0.659
    1QTZ  Si406 4065   7.495   0.026   1.086
    1QTZ  Si406 4066   7.228   0.040   0.105
    1QTZ  O4067 4067   7.017   0.054   2.412
    1QTZ  O4068 4068   7.567   0.006   1.533
    1QTZ  O4069 4069   7.263   3.421   2.064
    1QTZ  O4070 4070   6.818   0.390   2.009
    1QTZ  O4071 4071   7.421   0.411   2.475
    1QTZ  O4072 4072   7.163   0.368   1.566
    1QTZ  O4073 4073   7.153   0.350   2.555
    1QTZ  O4074 4074   6.904   0.311   1.597
    1QTZ  O4075 4075   7.443   0.252   2.058
    1QTZ  O4076 4076   6.931   0.119   2.156
    1QTZ  O4077 4077   7.521   0.057   1.257
    1QTZ  O4078 4078   7.260   0.038   1.772
    1QTZ  O4079 4079   6.950   0.309   2.379
    1QTZ  O4080 4080   7.208   0.181   2.031
    1QTZ  O4081 4081   6.803   0.141   1.917
    1QTZ  O4082 4082   7.408   0.165   2.564
    1QTZ  O4083 4083   7.088   0.121   1.551
    1QTZ  O4084 4084   7.327   0.057   1.475
    1QTZ  O4085 4085   6.764   0.105   2.388
    1QTZ  O4086 4086   7.041   0.012   1.927
    1QTZ  O4087 4087  10.015   0.333   1.767
    1QTZ  O4088 4088   7.280   0.255   2.310
    1QTZ  O4089 4089   7.013   0.307   1.332
    1QTZ  Si409 4090   7.481   0.099   1.423
    1QTZ  Si409 4091   6.914   0.152   2.324
    1QTZ  Si409 4092   7.204   0.038   1.939
    1QTZ  Si409 4093   6.717   0.282   1.930
    1QTZ  Si409 4094   7.306   0.287   2.485
    1QTZ  Si409 4095   7.039   0.275   1.503
    1QTZ  Si409 4096   6.995   0.415   2.505
    1QTZ  Si409 4097   6.741   0.352   1.604
    1QTZ  Si409 4098   7.295   0.282   2.133
    1QTZ  Si409 4099   6.898   0.039   2.007
    1QTZ  Si410 4100   7.524   0.038   2.526
    1QTZ  Si410 4101   7.217   0.024   1.601
    1QTZ  O4102 4102   6.847   0.474   2.586
    1QTZ  O4103 4103   6.847   0.972   2.587
    1QTZ  O4104 4104   6.847   1.470   2.587
    1QTZ  O4105 4105   6.847   1.968   2.587
    1QTZ  O4106 4106   6.847   2.466   2.586
    1QTZ  O4107 4107   6.847   2.963   2.586
    1QTZ  O4108 4108   6.847   3.461   2.586
    1QTZ  O4109 4109   7.681   0.474   2.587
    1QTZ  O4110 4110   7.681   0.972   2.587
    1QTZ  O4111 4111   7.681   1.470   2.587
    1QTZ  O4112 4112   7.681   1.968   2.586
    1QTZ  O4113 4113   7.681   2.466   2.587
    1QTZ  O4114 4114   7.681   2.963   2.586
    1QTZ  O4115 4115   7.681   3.461   2.587
    1QTZ  O4116 4116   8.516   0.474   2.587
    1QTZ  O4117 4117   8.515   0.972   2.587
    1QTZ  O4118 4118   8.516   1.470   2.587
    1QTZ  O4119 4119   8.515   1.968   2.587
    1QTZ  O4120 4120   8.516   2.466   2.587
    1QTZ  O4121 4121   8.516   2.963   2.587
    1QTZ  O4122 4122   8.516   3.461   2.587
    1QTZ  O4123 4123   9.350   0.475   2.587
    1QTZ  O4124 4124   9.350   0.972   2.587
    1QTZ  O4125 4125   9.350   1.470   2.587
    1QTZ  O4126 4126   9.350   1.968   2.587
    1QTZ  O4127 4127   9.350   2.466   2.587
    1QTZ  O4128 4128   9.350   2.963   2.586
    1QTZ  O4129 4129   9.350   3.461   2.586
    1QTZ  O4130 4130   7.030   0.505   1.106
    1QTZ  O4131 4131   7.584   0.559   0.210
    1QTZ  O4132 4132   7.326   0.430   0.558
    1QTZ  O4133 4133   6.896   0.889   0.672
    1QTZ  O4134 4134   7.446   0.868   1.037
    1QTZ  O4135 4135   7.126   0.913   0.025
    1QTZ  O4136 4136   7.207   0.804   1.113
    1QTZ  O4137 4137   6.936   0.852   0.201
    1QTZ  O4138 4138   7.492   0.758   0.661
    1QTZ  O4139 4139   7.021   0.582   0.822
    1QTZ  O4140 4140   7.253   0.505   0.278
    1QTZ  O4141 4141   6.967   0.753   1.056
    1QTZ  O4142 4142   7.271   0.683   0.525
    1QTZ  O4143 4143   6.882   0.640   0.580
    1QTZ  O4144 4144   7.371   0.617   1.023
    1QTZ  O4145 4145   7.112   0.661   0.114
    1QTZ  O4146 4146   7.380   0.600   0.034
    1QTZ  O4147 4147   6.796   0.561   0.992
    1QTZ  O4148 4148   7.091   0.503   0.530
    1QTZ  O4149 4149   6.768   0.866   0.432
    1QTZ  O4150 4150   7.273   0.784   0.817
    1QTZ  O4151 4151   6.852   0.725   0.003
    1QTZ  Si415 4152   7.538   0.665   0.084
    1QTZ  Si415 4153   6.959   0.601   0.985
    1QTZ  Si415 4154   7.239   0.532   0.456
    1QTZ  Si415 4155   6.802   0.786   0.582
    1QTZ  Si415 4156   7.317   0.770   0.987
    1QTZ  Si415 4157   7.009   0.786   0.063
    1QTZ  Si415 4158   7.054   0.846   1.166
    1QTZ  Si415 4159   6.785   0.900   0.265
    1QTZ  Si416 4160   7.330   0.785   0.650
    1QTZ  Si416 4161   6.982   0.532   0.659
    1QTZ  Si416 4162   7.495   0.524   1.087
    1QTZ  Si416 4163   7.228   0.537   0.105
    1QTZ  O4164 4164   7.017   0.552   2.413
    1QTZ  O4165 4165   7.567   0.504   1.533
    1QTZ  O4166 4166   7.265   0.434   2.064
    1QTZ  O4167 4167   6.818   0.887   2.009
    1QTZ  O4168 4168   7.421   0.909   2.476
    1QTZ  O4169 4169   7.164   0.866   1.566
    1QTZ  O4170 4170   7.153   0.848   2.556
    1QTZ  O4171 4171   6.904   0.809   1.597
    1QTZ  O4172 4172   7.442   0.753   2.060
    1QTZ  O4173 4173   6.932   0.616   2.157
    1QTZ  O4174 4174   7.521   0.555   1.258
    1QTZ  O4175 4175   7.261   0.536   1.772
    1QTZ  O4176 4176   6.950   0.807   2.379
    1QTZ  O4177 4177   7.208   0.678   2.031
    1QTZ  O4178 4178   6.805   0.638   1.917
    1QTZ  O4179 4179   7.408   0.663   2.565
    1QTZ  O4180 4180   7.088   0.619   1.552
    1QTZ  O4181 4181   7.327   0.554   1.476
    1QTZ  O4182 4182   6.764   0.602   2.388
    1QTZ  O4183 4183   7.042   0.508   1.929
    1QTZ  O4184 4184  10.016   0.829   1.767
    1QTZ  O4185 4185   7.279   0.753   2.311
    1QTZ  O4186 4186   7.013   0.804   1.332
    1QTZ  Si418 4187   7.481   0.597   1.424
    1QTZ  Si418 4188   6.914   0.650   2.325
    1QTZ  Si418 4189   7.205   0.536   1.940
    1QTZ  Si419 4190   6.718   0.779   1.929
    1QTZ  Si419 4191   7.305   0.785   2.485
    1QTZ  Si419 4192   7.040   0.773   1.503
    1QTZ  Si419 4193   6.995   0.913   2.506
    1QTZ  Si419 4194   6.741   0.849   1.604
    1QTZ  Si419 4195   7.294   0.781   2.134
    1QTZ  Si419 4196   6.899   0.536   2.008
    1QTZ  Si419 4197   7.524   0.536   2.526
    1QTZ  Si419 4198   7.217   0.521   1.602
    1QTZ  O4199 4199   7.030   1.002   1.106
    1QTZ  O4200 4200   7.584   1.057   0.210
    1QTZ  O4201 4201   7.326   0.927   0.559
    1QTZ  O4202 4202   6.895   1.386   0.672
    1QTZ  O4203 4203   7.446   1.365   1.038
    1QTZ  O4204 4204   7.125   1.411   0.025
    1QTZ  O4205 4205   7.207   1.302   1.114
    1QTZ  O4206 4206   6.936   1.350   0.201
    1QTZ  O4207 4207   7.493   1.257   0.662
    1QTZ  O4208 4208   7.021   1.080   0.822
    1QTZ  O4209 4209   7.254   1.003   0.279
    1QTZ  O4210 4210   6.967   1.251   1.057
    1QTZ  O4211 4211   7.272   1.181   0.525
    1QTZ  O4212 4212   6.882   1.138   0.580
    1QTZ  O4213 4213   7.371   1.114   1.024
    1QTZ  O4214 4214   7.112   1.159   0.114
    1QTZ  O4215 4215   7.380   1.098   0.034
    1QTZ  O4216 4216   6.796   1.059   0.992
    1QTZ  O4217 4217   7.092   1.001   0.531
    1QTZ  O4218 4218   6.768   1.364   0.432
    1QTZ  O4219 4219   7.274   1.282   0.817
    1QTZ  O4220 4220   6.852   1.222   0.003
    1QTZ  Si422 4221   7.538   1.163   0.084
    1QTZ  Si422 4222   6.959   1.099   0.985
    1QTZ  Si422 4223   7.240   1.030   0.456
    1QTZ  Si422 4224   6.801   1.284   0.582
    1QTZ  Si422 4225   7.317   1.268   0.988
    1QTZ  Si422 4226   7.009   1.283   0.063
    1QTZ  Si422 4227   7.053   1.344   1.167
    1QTZ  Si422 4228   6.785   1.397   0.265
    1QTZ  Si422 4229   7.330   1.283   0.651
    1QTZ  Si423 4230   6.983   1.030   0.660
    1QTZ  Si423 4231   7.495   1.021   1.087
    1QTZ  Si423 4232   7.228   1.035   0.105
    1QTZ  O4233 4233   7.017   1.049   2.413
    1QTZ  O4234 4234   7.566   1.001   1.534
    1QTZ  O4235 4235   7.261   0.932   2.065
    1QTZ  O4236 4236   6.819   1.385   2.009
    1QTZ  O4237 4237   7.421   1.407   2.475
    1QTZ  O4238 4238   7.163   1.363   1.567
    1QTZ  O4239 4239   7.153   1.345   2.555
    1QTZ  O4240 4240   6.903   1.307   1.598
    1QTZ  O4241 4241   7.442   1.247   2.058
    1QTZ  O4242 4242   6.931   1.114   2.157
    1QTZ  O4243 4243   7.521   1.052   1.258
    1QTZ  O4244 4244   7.260   1.033   1.773
    1QTZ  O4245 4245   6.950   1.305   2.379
    1QTZ  O4246 4246   7.207   1.176   2.031
    1QTZ  O4247 4247   6.802   1.136   1.918
    1QTZ  O4248 4248   7.408   1.161   2.564
    1QTZ  O4249 4249   7.088   1.116   1.552
    1QTZ  O4250 4250   7.327   1.053   1.476
    1QTZ  O4251 4251   6.763   1.100   2.388
    1QTZ  O4252 4252   7.040   1.008   1.928
    1QTZ  O4253 4253  10.015   1.328   1.768
    1QTZ  O4254 4254   7.281   1.250   2.310
    1QTZ  O4255 4255   7.013   1.302   1.333
    1QTZ  Si425 4256   7.481   1.094   1.423
    1QTZ  Si425 4257   6.914   1.148   2.325
    1QTZ  Si425 4258   7.203   1.034   1.939
    1QTZ  Si425 4259   6.717   1.278   1.930
    1QTZ  Si426 4260   7.306   1.283   2.485
    1QTZ  Si426 4261   7.039   1.270   1.503
    1QTZ  Si426 4262   6.995   1.410   2.505
    1QTZ  Si426 4263   6.740   1.347   1.605
    1QTZ  Si426 4264   7.295   1.278   2.133
    1QTZ  Si426 4265   6.897   1.034   2.008
    1QTZ  Si426 4266   7.524   1.033   2.526
    1QTZ  Si426 4267   7.217   1.019   1.602
    1QTZ  O4268 4268   7.030   1.500   1.106
    1QTZ  O4269 4269   7.584   1.555   0.211
    1QTZ  O4270 4270   7.326   1.425   0.559
    1QTZ  O4271 4271   6.897   1.884   0.672
    1QTZ  O4272 4272   7.446   1.863   1.037
    1QTZ  O4273 4273   7.126   1.909   0.025
    1QTZ  O4274 4274   7.207   1.799   1.113
    1QTZ  O4275 4275   6.936   1.848   0.201
    1QTZ  O4276 4276   7.492   1.753   0.661
    1QTZ  O4277 4277   7.021   1.577   0.822
    1QTZ  O4278 4278   7.253   1.500   0.279
    1QTZ  O4279 4279   6.968   1.749   1.056
    1QTZ  O4280 4280   7.270   1.679   0.525
    1QTZ  O4281 4281   6.882   1.635   0.580
    1QTZ  O4282 4282   7.371   1.612   1.023
    1QTZ  O4283 4283   7.112   1.656   0.114
    1QTZ  O4284 4284   7.380   1.595   0.034
    1QTZ  O4285 4285   6.796   1.556   0.992
    1QTZ  O4286 4286   7.091   1.498   0.531
    1QTZ  O4287 4287   6.769   1.862   0.433
    1QTZ  O4288 4288   7.273   1.780   0.817
    1QTZ  O4289 4289   6.853   1.720   0.003
    1QTZ  Si429 4290   7.538   1.660   0.084
    1QTZ  Si429 4291   6.959   1.596   0.985
    1QTZ  Si429 4292   7.239   1.527   0.456
    1QTZ  Si429 4293   6.802   1.782   0.582
    1QTZ  Si429 4294   7.317   1.766   0.987
    1QTZ  Si429 4295   7.010   1.781   0.063
    1QTZ  Si429 4296   7.054   1.841   1.166
    1QTZ  Si429 4297   6.786   1.895   0.265
    1QTZ  Si429 4298   7.329   1.780   0.650
    1QTZ  Si429 4299   6.982   1.527   0.660
    1QTZ  Si430 4300   7.495   1.519   1.087
    1QTZ  Si430 4301   7.228   1.533   0.105
    1QTZ  O4302 4302   7.017   1.547   2.413
    1QTZ  O4303 4303   7.567   1.499   1.533
    1QTZ  O4304 4304   7.265   1.430   2.064
    1QTZ  O4305 4305   6.818   1.883   2.009
    1QTZ  O4306 4306   7.421   1.904   2.475
    1QTZ  O4307 4307   7.164   1.861   1.566
    1QTZ  O4308 4308   7.153   1.844   2.556
    1QTZ  O4309 4309   6.904   1.805   1.597
    1QTZ  O4310 4310   7.442   1.749   2.060
    1QTZ  O4311 4311   6.932   1.612   2.157
    1QTZ  O4312 4312   7.521   1.551   1.257
    1QTZ  O4313 4313   7.261   1.531   1.772
    1QTZ  O4314 4314   6.950   1.802   2.379
    1QTZ  O4315 4315   7.208   1.674   2.031
    1QTZ  O4316 4316   6.805   1.634   1.917
    1QTZ  O4317 4317   7.408   1.659   2.565
    1QTZ  O4318 4318   7.089   1.614   1.551
    1QTZ  O4319 4319   7.327   1.549   1.476
    1QTZ  O4320 4320   6.764   1.598   2.388
    1QTZ  O4321 4321   7.043   1.504   1.929
    1QTZ  O4322 4322  10.016   1.825   1.767
    1QTZ  O4323 4323   7.279   1.749   2.311
    1QTZ  O4324 4324   7.013   1.800   1.332
    1QTZ  Si432 4325   7.481   1.592   1.423
    1QTZ  Si432 4326   6.914   1.645   2.325
    1QTZ  Si432 4327   7.205   1.531   1.939
    1QTZ  Si432 4328   6.718   1.774   1.929
    1QTZ  Si432 4329   7.305   1.781   2.485
    1QTZ  Si433 4330   7.040   1.768   1.503
    1QTZ  Si433 4331   6.995   1.908   2.506
    1QTZ  Si433 4332   6.741   1.845   1.604
    1QTZ  Si433 4333   7.294   1.776   2.133
    1QTZ  Si433 4334   6.899   1.531   2.008
    1QTZ  Si433 4335   7.524   1.531   2.526
    1QTZ  Si433 4336   7.217   1.517   1.602
    1QTZ  O4337 4337   7.031   1.998   1.106
    1QTZ  O4338 4338   7.584   2.052   0.210
    1QTZ  O4339 4339   7.326   1.923   0.558
    1QTZ  O4340 4340   6.895   2.382   0.672
    1QTZ  O4341 4341   7.446   2.361   1.038
    1QTZ  O4342 4342   7.126   2.406   0.025
    1QTZ  O4343 4343   7.207   2.297   1.113
    1QTZ  O4344 4344   6.936   2.345   0.201
    1QTZ  O4345 4345   7.494   2.253   0.662
    1QTZ  O4346 4346   7.022   2.076   0.822
    1QTZ  O4347 4347   7.254   1.998   0.279
    1QTZ  O4348 4348   6.968   2.246   1.056
    1QTZ  O4349 4349   7.273   2.177   0.525
    1QTZ  O4350 4350   6.882   2.133   0.580
    1QTZ  O4351 4351   7.371   2.110   1.023
    1QTZ  O4352 4352   7.113   2.154   0.114
    1QTZ  O4353 4353   7.381   2.093   0.034
    1QTZ  O4354 4354   6.797   2.054   0.992
    1QTZ  O4355 4355   7.092   1.998   0.530
    1QTZ  O4356 4356   6.768   2.359   0.432
    1QTZ  O4357 4357   7.274   2.278   0.817
    1QTZ  O4358 4358   6.852   2.217   0.003
    1QTZ  Si435 4359   7.539   2.158   0.084
    1QTZ  Si436 4360   6.959   2.094   0.985
    1QTZ  Si436 4361   7.240   2.025   0.456
    1QTZ  Si436 4362   6.801   2.279   0.581
    1QTZ  Si436 4363   7.317   2.264   0.988
    1QTZ  Si436 4364   7.009   2.279   0.063
    1QTZ  Si436 4365   7.054   2.339   1.166
    1QTZ  Si436 4366   6.785   2.393   0.264
    1QTZ  Si436 4367   7.331   2.279   0.650
    1QTZ  Si436 4368   6.983   2.026   0.659
    1QTZ  Si436 4369   7.495   2.017   1.086
    1QTZ  Si437 4370   7.228   2.030   0.105
    1QTZ  O4371 4371   7.017   2.045   2.413
    1QTZ  O4372 4372   7.567   1.997   1.533
    1QTZ  O4373 4373   7.262   1.928   2.065
    1QTZ  O4374 4374   6.819   2.381   2.009
    1QTZ  O4375 4375   7.421   2.402   2.475
    1QTZ  O4376 4376   7.163   2.359   1.566
    1QTZ  O4377 4377   7.154   2.341   2.555
    1QTZ  O4378 4378   6.904   2.302   1.597
    1QTZ  O4379 4379   7.442   2.244   2.058
    1QTZ  O4380 4380   6.931   2.109   2.157
    1QTZ  O4381 4381   7.521   2.048   1.257
    1QTZ  O4382 4382   7.260   2.029   1.772
    1QTZ  O4383 4383   6.950   2.300   2.379
    1QTZ  O4384 4384   7.207   2.172   2.030
    1QTZ  O4385 4385   6.802   2.132   1.917
    1QTZ  O4386 4386   7.408   2.157   2.564
    1QTZ  O4387 4387   7.088   2.112   1.551
    1QTZ  O4388 4388   7.327   2.048   1.476
    1QTZ  O4389 4389   6.764   2.096   2.388
    1QTZ  O4390 4390   7.040   2.003   1.927
    1QTZ  O4391 4391  10.015   2.324   1.767
    1QTZ  O4392 4392   7.280   2.246   2.310
    1QTZ  O4393 4393   7.013   2.298   1.332
    1QTZ  Si439 4394   7.481   2.090   1.423
    1QTZ  Si439 4395   6.914   2.143   2.324
    1QTZ  Si439 4396   7.203   2.029   1.939
    1QTZ  Si439 4397   6.717   2.273   1.930
    1QTZ  Si439 4398   7.306   2.279   2.484
    1QTZ  Si439 4399   7.039   2.266   1.503
    1QTZ  Si440 4400   6.995   2.406   2.505
    1QTZ  Si440 4401   6.741   2.343   1.605
    1QTZ  Si440 4402   7.295   2.273   2.133
    1QTZ  Si440 4403   6.897   2.029   2.007
    1QTZ  Si440 4404   7.525   2.029   2.526
    1QTZ  Si440 4405   7.217   2.015   1.602
    1QTZ  O4406 4406   7.030   2.496   1.106
    1QTZ  O4407 4407   7.584   2.550   0.210
    1QTZ  O4408 4408   7.327   2.421   0.558
    1QTZ  O4409 4409   6.897   2.880   0.671
    1QTZ  O4410 4410   7.446   2.859   1.037
    1QTZ  O4411 4411   7.126   2.904   0.024
    1QTZ  O4412 4412   7.207   2.794   1.113
    1QTZ  O4413 4413   6.936   2.843   0.200
    1QTZ  O4414 4414   7.492   2.749   0.660
    1QTZ  O4415 4415   7.021   2.573   0.822
    1QTZ  O4416 4416   7.254   2.495   0.278
    1QTZ  O4417 4417   6.968   2.744   1.056
    1QTZ  O4418 4418   7.270   2.674   0.525
    1QTZ  O4419 4419   6.883   2.631   0.579
    1QTZ  O4420 4420   7.371   2.608   1.022
    1QTZ  O4421 4421   7.113   2.652   0.114
    1QTZ  O4422 4422   7.381   2.591   0.034
    1QTZ  O4423 4423   6.796   2.552   0.992
    1QTZ  O4424 4424   7.092   2.493   0.531
    1QTZ  O4425 4425   6.769   2.857   0.432
    1QTZ  O4426 4426   7.273   2.776   0.816
    1QTZ  O4427 4427   6.853   2.715   0.002
    1QTZ  Si442 4428   7.539   2.656   0.084
    1QTZ  Si442 4429   6.959   2.592   0.985
    1QTZ  Si443 4430   7.239   2.522   0.456
    1QTZ  Si443 4431   6.803   2.777   0.581
    1QTZ  Si443 4432   7.317   2.762   0.987
    1QTZ  Si443 4433   7.010   2.777   0.063
    1QTZ  Si443 4434   7.054   2.837   1.165
    1QTZ  Si443 4435   6.786   2.891   0.264
    1QTZ  Si443 4436   7.329   2.776   0.649
    1QTZ  Si443 4437   6.982   2.522   0.659
    1QTZ  Si443 4438   7.495   2.515   1.086
    1QTZ  Si443 4439   7.228   2.528   0.104
    1QTZ  O4440 4440   7.017   2.543   2.412
    1QTZ  O4441 4441   7.567   2.495   1.533
    1QTZ  O4442 4442   7.264   2.425   2.064
    1QTZ  O4443 4443   6.818   2.878   2.009
    1QTZ  O4444 4444   7.421   2.900   2.475
    1QTZ  O4445 4445   7.164   2.857   1.566
    1QTZ  O4446 4446   7.153   2.839   2.555
    1QTZ  O4447 4447   6.904   2.800   1.597
    1QTZ  O4448 4448   7.442   2.743   2.059
    1QTZ  O4449 4449   6.932   2.607   2.156
    1QTZ  O4450 4450   7.522   2.547   1.257
    1QTZ  O4451 4451   7.261   2.527   1.772
    1QTZ  O4452 4452   6.950   2.798   2.379
    1QTZ  O4453 4453   7.208   2.669   2.030
    1QTZ  O4454 4454   6.804   2.629   1.917
    1QTZ  O4455 4455   7.408   2.654   2.564
    1QTZ  O4456 4456   7.089   2.610   1.551
    1QTZ  O4457 4457   7.327   2.545   1.475
    1QTZ  O4458 4458   6.764   2.594   2.387
    1QTZ  O4459 4459   7.042   2.500   1.928
    1QTZ  O4460 4460  10.016   2.821   1.767
    1QTZ  O4461 4461   7.280   2.744   2.310
    1QTZ  O4462 4462   7.013   2.796   1.331
    1QTZ  Si446 4463   7.481   2.588   1.423
    1QTZ  Si446 4464   6.914   2.641   2.324
    1QTZ  Si446 4465   7.205   2.527   1.939
    1QTZ  Si446 4466   6.717   2.771   1.929
    1QTZ  Si446 4467   7.306   2.776   2.484
    1QTZ  Si446 4468   7.040   2.764   1.502
    1QTZ  Si446 4469   6.995   2.904   2.505
    1QTZ  Si447 4470   6.741   2.840   1.604
    1QTZ  Si447 4471   7.294   2.771   2.133
    1QTZ  Si447 4472   6.899   2.527   2.007
    1QTZ  Si447 4473   7.524   2.527   2.526
    1QTZ  Si447 4474   7.217   2.513   1.601
    1QTZ  O4475 4475   7.031   2.994   1.105
    1QTZ  O4476 4476   7.584   3.048   0.210
    1QTZ  O4477 4477   7.326   2.919   0.558
    1QTZ  O4478 4478   6.895   3.377   0.672
    1QTZ  O4479 4479   7.446   3.357   1.037
    1QTZ  O4480 4480   7.125   3.402   0.025
    1QTZ  O4481 4481   7.207   3.293   1.113
    1QTZ  O4482 4482   6.936   3.341   0.201
    1QTZ  O4483 4483   7.493   3.248   0.661
    1QTZ  O4484 4484   7.022   3.071   0.821
    1QTZ  O4485 4485   7.254   2.994   0.278
    1QTZ  O4486 4486   6.968   3.242   1.056
    1QTZ  O4487 4487   7.272   3.172   0.524
    1QTZ  O4488 4488   6.882   3.129   0.579
    1QTZ  O4489 4489   7.371   3.106   1.023
    1QTZ  O4490 4490   7.112   3.150   0.113
    1QTZ  O4491 4491   7.381   3.089   0.033
    1QTZ  O4492 4492   6.796   3.050   0.991
    1QTZ  O4493 4493   7.092   2.993   0.530
    1QTZ  O4494 4494   6.768   3.355   0.432
    1QTZ  O4495 4495   7.274   3.273   0.816
    1QTZ  O4496 4496   6.852   3.213   0.002
    1QTZ  Si449 4497   7.539   3.154   0.083
    1QTZ  Si449 4498   6.959   3.090   0.984
    1QTZ  Si449 4499   7.240   3.021   0.455
    1QTZ  Si450 4500   6.801   3.275   0.581
    1QTZ  Si450 4501   7.317   3.259   0.987
    1QTZ  Si450 4502   7.009   3.274   0.063
    1QTZ  Si450 4503   7.054   3.335   1.166
    1QTZ  Si450 4504   6.785   3.388   0.264
    1QTZ  Si450 4505   7.330   3.274   0.650
    1QTZ  Si450 4506   6.983   3.021   0.659
    1QTZ  Si450 4507   7.495   3.013   1.086
    1QTZ  Si450 4508   7.228   3.026   0.104
    1QTZ  O4509 4509   7.017   3.040   2.412
    1QTZ  O4510 4510   7.567   2.992   1.533
    1QTZ  O4511 4511   7.263   2.923   2.064
    1QTZ  O4512 4512   6.818   3.376   2.009
    1QTZ  O4513 4513   7.421   3.398   2.475
    1QTZ  O4514 4514   7.164   3.354   1.566
    1QTZ  O4515 4515   7.153   3.337   2.555
    1QTZ  O4516 4516   6.904   3.298   1.597
    1QTZ  O4517 4517   7.442   3.240   2.058
    1QTZ  O4518 4518   6.931   3.105   2.156
    1QTZ  O4519 4519   7.521   3.044   1.257
    1QTZ  O4520 4520   7.261   3.024   1.772
    1QTZ  O4521 4521   6.950   3.296   2.379
    1QTZ  O4522 4522   7.208   3.167   2.030
    1QTZ  O4523 4523   6.804   3.127   1.917
    1QTZ  O4524 4524   7.408   3.152   2.564
    1QTZ  O4525 4525   7.088   3.107   1.551
    1QTZ  O4526 4526   7.327   3.043   1.476
    1QTZ  O4527 4527   6.764   3.091   2.388
    1QTZ  O4528 4528   7.042   2.998   1.928
    1QTZ  O4529 4529  10.015   3.319   1.767
    1QTZ  O4530 4530   7.280   3.242   2.310
    1QTZ  O4531 4531   7.013   3.293   1.332
    1QTZ  Si453 4532   7.481   3.085   1.423
    1QTZ  Si453 4533   6.914   3.139   2.324
    1QTZ  Si453 4534   7.204   3.025   1.939
    1QTZ  Si453 4535   6.717   3.268   1.929
    1QTZ  Si453 4536   7.306   3.274   2.484
    1QTZ  Si453 4537   7.039   3.261   1.502
    1QTZ  Si453 4538   6.995   3.402   2.505
    1QTZ  Si453 4539   6.741   3.338   1.604
    1QTZ  Si454 4540   7.294   3.269   2.133
    1QTZ  Si454 4541   6.898   3.025   2.007
    1QTZ  Si454 4542   7.524   3.025   2.526
    1QTZ  Si454 4543   7.217   3.010   1.601
    1QTZ  O4544 4544   7.865   0.007   1.106
    1QTZ  O4545 4545   8.418   0.061   0.210
    1QTZ  O4546 4546   8.160   3.416   0.558
    1QTZ  O4547 4547   7.730   0.391   0.673
    1QTZ  O4548 4548   8.280   0.370   1.038
    1QTZ  O4549 4549   7.960   0.416   0.026
    1QTZ  O4550 4550   8.042   0.306   1.114
    1QTZ  O4551 4551   7.770   0.355   0.201
    1QTZ  O4552 4552   8.327   0.261   0.662
    1QTZ  O4553 4553   7.856   0.085   0.822
    1QTZ  O4554 4554   8.088   0.007   0.279
    1QTZ  O4555 4555   7.802   0.255   1.056
    1QTZ  O4556 4556   7.517   0.304   0.177
    1QTZ  O4557 4557   8.106   0.186   0.525
    1QTZ  O4558 4558   7.716   0.142   0.580
    1QTZ  O4559 4559   8.205   0.119   1.024
    1QTZ  O4560 4560   7.946   0.163   0.114
    1QTZ  O4561 4561   8.214   0.103   0.034
    1QTZ  O4562 4562   7.631   0.063   0.992
    1QTZ  O4563 4563   7.926   0.006   0.531
    1QTZ  O4564 4564   7.602   0.369   0.433
    1QTZ  O4565 4565   8.108   0.287   0.817
    1QTZ  O4566 4566   7.686   0.227   0.003
    1QTZ  Si456 4567   8.373   0.167   0.084
    1QTZ  Si456 4568   7.794   0.103   0.985
    1QTZ  Si456 4569   8.074   0.034   0.456
    1QTZ  Si457 4570   7.636   0.289   0.582
    1QTZ  Si457 4571   8.152   0.273   0.988
    1QTZ  Si457 4572   7.843   0.288   0.064
    1QTZ  Si457 4573   7.888   0.348   1.166
    1QTZ  Si457 4574   7.619   0.402   0.265
    1QTZ  Si457 4575   8.164   0.287   0.650
    1QTZ  Si457 4576   7.817   0.035   0.659
    1QTZ  Si457 4577   8.329   0.026   1.087
    1QTZ  Si457 4578   8.062   0.040   0.105
    1QTZ  O4579 4579   7.851   0.054   2.413
    1QTZ  O4580 4580   8.401   0.006   1.533
    1QTZ  O4581 4581   8.099   3.421   2.064
    1QTZ  O4582 4582   7.652   0.389   2.009
    1QTZ  O4583 4583   8.255   0.411   2.476
    1QTZ  O4584 4584   7.998   0.368   1.566
    1QTZ  O4585 4585   7.987   0.350   2.556
    1QTZ  O4586 4586   7.738   0.311   1.598
    1QTZ  O4587 4587   8.276   0.255   2.059
    1QTZ  O4588 4588   7.766   0.118   2.157
    1QTZ  O4589 4589   8.356   0.057   1.258
    1QTZ  O4590 4590   8.095   0.038   1.773
    1QTZ  O4591 4591   7.784   0.309   2.380
    1QTZ  O4592 4592   7.505   0.255   1.483
    1QTZ  O4593 4593   8.042   0.181   2.031
    1QTZ  O4594 4594   7.639   0.140   1.917
    1QTZ  O4595 4595   8.242   0.166   2.565
    1QTZ  O4596 4596   7.923   0.121   1.552
    1QTZ  O4597 4597   8.162   0.056   1.476
    1QTZ  O4598 4598   7.598   0.105   2.388
    1QTZ  O4599 4599   7.876   0.011   1.929
    1QTZ  O4600 4600   7.513   0.332   1.767
    1QTZ  O4601 4601   8.114   0.255   2.311
    1QTZ  O4602 4602   7.848   0.306   1.332
    1QTZ  Si460 4603   8.315   0.099   1.424
    1QTZ  Si460 4604   7.748   0.152   2.325
    1QTZ  Si460 4605   8.039   0.038   1.940
    1QTZ  Si460 4606   7.552   0.281   1.930
    1QTZ  Si460 4607   8.140   0.288   2.485
    1QTZ  Si460 4608   7.874   0.275   1.503
    1QTZ  Si460 4609   7.829   0.415   2.506
    1QTZ  Si461 4610   7.575   0.351   1.605
    1QTZ  Si461 4611   8.128   0.283   2.134
    1QTZ  Si461 4612   7.733   0.038   2.008
    1QTZ  Si461 4613   8.359   0.038   2.526
    1QTZ  Si461 4614   8.052   0.024   1.602
    1QTZ  O4615 4615   7.864   0.505   1.107
    1QTZ  O4616 4616   8.418   0.559   0.211
    1QTZ  O4617 4617   8.161   0.430   0.559
    1QTZ  O4618 4618   7.729   0.889   0.673
    1QTZ  O4619 4619   8.280   0.868   1.039
    1QTZ  O4620 4620   7.960   0.913   0.025
    1QTZ  O4621 4621   8.041   0.804   1.114
    1QTZ  O4622 4622   7.770   0.852   0.201
    1QTZ  O4623 4623   8.327   0.759   0.662
    1QTZ  O4624 4624   7.855   0.582   0.823
    1QTZ  O4625 4625   8.088   0.505   0.279
    1QTZ  O4626 4626   7.801   0.753   1.057
    1QTZ  O4627 4627   7.517   0.801   0.177
    1QTZ  O4628 4628   8.105   0.684   0.526
    1QTZ  O4629 4629   7.717   0.640   0.580
    1QTZ  O4630 4630   8.205   0.617   1.024
    1QTZ  O4631 4631   7.946   0.661   0.115
    1QTZ  O4632 4632   8.214   0.600   0.035
    1QTZ  O4633 4633   7.630   0.561   0.992
    1QTZ  O4634 4634   7.926   0.503   0.532
    1QTZ  O4635 4635   7.602   0.866   0.433
    1QTZ  O4636 4636   8.108   0.785   0.818
    1QTZ  O4637 4637   7.686   0.724   0.003
    1QTZ  Si463 4638   8.373   0.665   0.084
    1QTZ  Si463 4639   7.793   0.601   0.985
    1QTZ  Si464 4640   8.074   0.532   0.457
    1QTZ  Si464 4641   7.636   0.786   0.582
    1QTZ  Si464 4642   8.151   0.771   0.988
    1QTZ  Si464 4643   7.843   0.786   0.064
    1QTZ  Si464 4644   7.888   0.846   1.167
    1QTZ  Si464 4645   7.619   0.900   0.265
    1QTZ  Si464 4646   8.164   0.785   0.651
    1QTZ  Si464 4647   7.817   0.532   0.660
    1QTZ  Si464 4648   8.329   0.524   1.087
    1QTZ  Si464 4649   8.062   0.537   0.105
    1QTZ  O4650 4650   7.851   0.551   2.413
    1QTZ  O4651 4651   8.401   0.504   1.534
    1QTZ  O4652 4652   8.096   0.435   2.065
    1QTZ  O4653 4653   7.653   0.887   2.010
    1QTZ  O4654 4654   8.255   0.909   2.476
    1QTZ  O4655 4655   7.997   0.865   1.567
    1QTZ  O4656 4656   7.988   0.848   2.556
    1QTZ  O4657 4657   7.738   0.809   1.598
    1QTZ  O4658 4658   8.277   0.750   2.059
    1QTZ  O4659 4659   7.765   0.616   2.157
    1QTZ  O4660 4660   8.355   0.555   1.258
    1QTZ  O4661 4661   8.094   0.536   1.773
    1QTZ  O4662 4662   7.784   0.807   2.380
    1QTZ  O4663 4663   7.504   0.753   1.484
    1QTZ  O4664 4664   8.042   0.679   2.031
    1QTZ  O4665 4665   7.636   0.638   1.918
    1QTZ  O4666 4666   8.243   0.664   2.565
    1QTZ  O4667 4667   7.922   0.619   1.552
    1QTZ  O4668 4668   8.161   0.555   1.476
    1QTZ  O4669 4669   7.598   0.603   2.389
    1QTZ  O4670 4670   7.875   0.510   1.928
    1QTZ  O4671 4671   7.512   0.830   1.768
    1QTZ  O4672 4672   8.115   0.753   2.311
    1QTZ  O4673 4673   7.847   0.805   1.333
    1QTZ  Si467 4674   8.315   0.597   1.424
    1QTZ  Si467 4675   7.748   0.650   2.325
    1QTZ  Si467 4676   8.038   0.536   1.940
    1QTZ  Si467 4677   7.551   0.780   1.931
    1QTZ  Si467 4678   8.140   0.785   2.485
    1QTZ  Si467 4679   7.873   0.773   1.504
    1QTZ  Si468 4680   7.829   0.912   2.506
    1QTZ  Si468 4681   7.575   0.849   1.605
    1QTZ  Si468 4682   8.129   0.780   2.134
    1QTZ  Si468 4683   7.732   0.536   2.008
    1QTZ  Si468 4684   8.359   0.536   2.527
    1QTZ  Si468 4685   8.051   0.522   1.602
    1QTZ  O4686 4686   7.864   1.002   1.107
    1QTZ  O4687 4687   8.418   1.057   0.211
    1QTZ  O4688 4688   8.160   0.928   0.559
    1QTZ  O4689 4689   7.731   1.386   0.672
    1QTZ  O4690 4690   8.280   1.366   1.038
    1QTZ  O4691 4691   7.960   1.411   0.025
    1QTZ  O4692 4692   8.042   1.301   1.114
    1QTZ  O4693 4693   7.770   1.350   0.202
    1QTZ  O4694 4694   8.326   1.256   0.661
    1QTZ  O4695 4695   7.855   1.079   0.823
    1QTZ  O4696 4696   8.088   1.002   0.279
    1QTZ  O4697 4697   7.802   1.251   1.057
    1QTZ  O4698 4698   7.517   1.299   0.177
    1QTZ  O4699 4699   8.104   1.181   0.525
    1QTZ  O4700 4700   7.716   1.138   0.581
    1QTZ  O4701 4701   8.205   1.115   1.024
    1QTZ  O4702 4702   7.946   1.159   0.115
    1QTZ  O4703 4703   8.214   1.098   0.035
    1QTZ  O4704 4704   7.630   1.059   0.992
    1QTZ  O4705 4705   7.926   1.000   0.532
    1QTZ  O4706 4706   7.603   1.364   0.433
    1QTZ  O4707 4707   8.107   1.282   0.817
    1QTZ  O4708 4708   7.687   1.222   0.003
    1QTZ  Si470 4709   8.372   1.163   0.084
    1QTZ  Si471 4710   7.793   1.099   0.985
    1QTZ  Si471 4711   8.073   1.029   0.457
    1QTZ  Si471 4712   7.636   1.284   0.582
    1QTZ  Si471 4713   8.151   1.268   0.988
    1QTZ  Si471 4714   7.844   1.283   0.064
    1QTZ  Si471 4715   7.888   1.344   1.167
    1QTZ  Si471 4716   7.620   1.397   0.265
    1QTZ  Si471 4717   8.164   1.283   0.650
    1QTZ  Si471 4718   7.817   1.029   0.660
    1QTZ  Si471 4719   8.329   1.022   1.087
    1QTZ  Si472 4720   8.062   1.035   0.105
    1QTZ  O4721 4721   7.851   1.049   2.413
    1QTZ  O4722 4722   8.401   1.001   1.534
    1QTZ  O4723 4723   8.099   0.932   2.065
    1QTZ  O4724 4724   7.652   1.385   2.009
    1QTZ  O4725 4725   8.255   1.407   2.476
    1QTZ  O4726 4726   7.998   1.363   1.566
    1QTZ  O4727 4727   7.987   1.346   2.556
    1QTZ  O4728 4728   7.739   1.307   1.598
    1QTZ  O4729 4729   8.276   1.251   2.060
    1QTZ  O4730 4730   7.766   1.114   2.157
    1QTZ  O4731 4731   8.355   1.053   1.258
    1QTZ  O4732 4732   8.095   1.034   1.773
    1QTZ  O4733 4733   7.784   1.305   2.380
    1QTZ  O4734 4734   7.505   1.251   1.483
    1QTZ  O4735 4735   8.042   1.176   2.032
    1QTZ  O4736 4736   7.639   1.136   1.917
    1QTZ  O4737 4737   8.242   1.162   2.565
    1QTZ  O4738 4738   7.923   1.117   1.552
    1QTZ  O4739 4739   8.161   1.051   1.476
    1QTZ  O4740 4740   7.598   1.100   2.388
    1QTZ  O4741 4741   7.877   1.006   1.929
    1QTZ  O4742 4742   7.513   1.327   1.767
    1QTZ  O4743 4743   8.114   1.251   2.311
    1QTZ  O4744 4744   7.848   1.302   1.332
    1QTZ  Si474 4745   8.315   1.094   1.424
    1QTZ  Si474 4746   7.748   1.147   2.325
    1QTZ  Si474 4747   8.039   1.034   1.940
    1QTZ  Si474 4748   7.552   1.276   1.930
    1QTZ  Si474 4749   8.140   1.283   2.485
    1QTZ  Si475 4750   7.874   1.271   1.503
    1QTZ  Si475 4751   7.829   1.411   2.506
    1QTZ  Si475 4752   7.576   1.347   1.605
    1QTZ  Si475 4753   8.128   1.279   2.134
    1QTZ  Si475 4754   7.733   1.033   2.008
    1QTZ  Si475 4755   8.358   1.034   2.527
    1QTZ  Si475 4756   8.051   1.019   1.603
    1QTZ  O4757 4757   7.865   1.500   1.106
    1QTZ  O4758 4758   8.418   1.555   0.211
    1QTZ  O4759 4759   8.160   1.425   0.559
    1QTZ  O4760 4760   7.729   1.884   0.673
    1QTZ  O4761 4761   8.280   1.863   1.038
    1QTZ  O4762 4762   7.960   1.908   0.025
    1QTZ  O4763 4763   8.041   1.800   1.114
    1QTZ  O4764 4764   7.770   1.848   0.201
    1QTZ  O4765 4765   8.328   1.755   0.662
    1QTZ  O4766 4766   7.856   1.578   0.822
    1QTZ  O4767 4767   8.088   1.500   0.279
    1QTZ  O4768 4768   7.802   1.749   1.057
    1QTZ  O4769 4769   7.517   1.797   0.177
    1QTZ  O4770 4770   8.106   1.679   0.525
    1QTZ  O4771 4771   7.716   1.635   0.580
    1QTZ  O4772 4772   8.205   1.612   1.024
    1QTZ  O4773 4773   7.947   1.656   0.115
    1QTZ  O4774 4774   8.215   1.595   0.034
    1QTZ  O4775 4775   7.631   1.556   0.992
    1QTZ  O4776 4776   7.926   1.499   0.531
    1QTZ  O4777 4777   7.602   1.862   0.432
    1QTZ  O4778 4778   8.108   1.780   0.818
    1QTZ  O4779 4779   7.687   1.719   0.003
    1QTZ  Si478 4780   8.373   1.660   0.084
    1QTZ  Si478 4781   7.794   1.597   0.985
    1QTZ  Si478 4782   8.074   1.528   0.457
    1QTZ  Si478 4783   7.635   1.781   0.582
    1QTZ  Si478 4784   8.151   1.766   0.988
    1QTZ  Si478 4785   7.843   1.781   0.063
    1QTZ  Si478 4786   7.888   1.842   1.167
    1QTZ  Si478 4787   7.620   1.895   0.265
    1QTZ  Si478 4788   8.165   1.781   0.651
    1QTZ  Si478 4789   7.817   1.528   0.660
    1QTZ  Si479 4790   8.329   1.519   1.087
    1QTZ  Si479 4791   8.062   1.533   0.105
    1QTZ  O4792 4792   7.851   1.547   2.413
    1QTZ  O4793 4793   8.401   1.499   1.534
    1QTZ  O4794 4794   8.095   1.430   2.065
    1QTZ  O4795 4795   7.653   1.883   2.009
    1QTZ  O4796 4796   8.256   1.905   2.475
    1QTZ  O4797 4797   7.997   1.861   1.567
    1QTZ  O4798 4798   7.988   1.843   2.555
    1QTZ  O4799 4799   7.738   1.805   1.598
    1QTZ  O4800 4800   8.277   1.746   2.058
    1QTZ  O4801 4801   7.765   1.611   2.157
    1QTZ  O4802 4802   8.355   1.550   1.258
    1QTZ  O4803 4803   8.094   1.531   1.773
    1QTZ  O4804 4804   7.784   1.802   2.379
    1QTZ  O4805 4805   7.504   1.748   1.484
    1QTZ  O4806 4806   8.041   1.674   2.031
    1QTZ  O4807 4807   7.636   1.634   1.918
    1QTZ  O4808 4808   8.243   1.659   2.565
    1QTZ  O4809 4809   7.922   1.614   1.552
    1QTZ  O4810 4810   8.161   1.551   1.476
    1QTZ  O4811 4811   7.598   1.598   2.389
    1QTZ  O4812 4812   7.874   1.505   1.928
    1QTZ  O4813 4813   7.512   1.826   1.768
    1QTZ  O4814 4814   8.115   1.749   2.311
    1QTZ  O4815 4815   7.847   1.800   1.333
    1QTZ  Si481 4816   8.315   1.592   1.424
    1QTZ  Si481 4817   7.748   1.645   2.325
    1QTZ  Si481 4818   8.037   1.532   1.940
    1QTZ  Si481 4819   7.551   1.776   1.930
    1QTZ  Si482 4820   8.140   1.781   2.485
    1QTZ  Si482 4821   7.873   1.768   1.503
    1QTZ  Si482 4822   7.829   1.908   2.505
    1QTZ  Si482 4823   7.575   1.845   1.605
    1QTZ  Si482 4824   8.129   1.776   2.133
    1QTZ  Si482 4825   7.731   1.532   2.008
    1QTZ  Si482 4826   8.359   1.531   2.526
    1QTZ  Si482 4827   8.051   1.517   1.602
    1QTZ  O4828 4828   7.864   1.998   1.107
    1QTZ  O4829 4829   8.418   2.052   0.210
    1QTZ  O4830 4830   8.161   1.923   0.559
    1QTZ  O4831 4831   7.732   2.382   0.672
    1QTZ  O4832 4832   8.280   2.361   1.037
    1QTZ  O4833 4833   7.960   2.406   0.025
    1QTZ  O4834 4834   8.042   2.297   1.113
    1QTZ  O4835 4835   7.770   2.346   0.201
    1QTZ  O4836 4836   8.326   2.251   0.661
    1QTZ  O4837 4837   7.855   2.075   0.822
    1QTZ  O4838 4838   8.088   1.997   0.279
    1QTZ  O4839 4839   7.802   2.246   1.056
    1QTZ  O4840 4840   7.517   2.295   0.177
    1QTZ  O4841 4841   8.104   2.177   0.525
    1QTZ  O4842 4842   7.717   2.133   0.580
    1QTZ  O4843 4843   8.205   2.110   1.023
    1QTZ  O4844 4844   7.947   2.154   0.114
    1QTZ  O4845 4845   8.215   2.093   0.034
    1QTZ  O4846 4846   7.630   2.054   0.992
    1QTZ  O4847 4847   7.926   1.995   0.531
    1QTZ  O4848 4848   7.603   2.359   0.432
    1QTZ  O4849 4849   8.107   2.278   0.817
    1QTZ  O4850 4850   7.687   2.217   0.003
    1QTZ  Si485 4851   8.373   2.158   0.084
    1QTZ  Si485 4852   7.793   2.094   0.985
    1QTZ  Si485 4853   8.073   2.025   0.456
    1QTZ  Si485 4854   7.637   2.280   0.582
    1QTZ  Si485 4855   8.152   2.264   0.987
    1QTZ  Si485 4856   7.844   2.279   0.063
    1QTZ  Si485 4857   7.888   2.339   1.166
    1QTZ  Si485 4858   7.620   2.393   0.264
    1QTZ  Si485 4859   8.163   2.278   0.650
    1QTZ  Si486 4860   7.817   2.025   0.660
    1QTZ  Si486 4861   8.329   2.017   1.087
    1QTZ  Si486 4862   8.062   2.030   0.105
    1QTZ  O4863 4863   7.851   2.045   2.413
    1QTZ  O4864 4864   8.401   1.997   1.533
    1QTZ  O4865 4865   8.099   1.928   2.064
    1QTZ  O4866 4866   7.652   2.380   2.009
    1QTZ  O4867 4867   8.256   2.403   2.475
    1QTZ  O4868 4868   7.998   2.359   1.566
    1QTZ  O4869 4869   7.987   2.341   2.556
    1QTZ  O4870 4870   7.739   2.303   1.597
    1QTZ  O4871 4871   8.277   2.246   2.059
    1QTZ  O4872 4872   7.766   2.109   2.157
    1QTZ  O4873 4873   8.356   2.049   1.257
    1QTZ  O4874 4874   8.095   2.029   1.772
    1QTZ  O4875 4875   7.784   2.300   2.379
    1QTZ  O4876 4876   7.505   2.246   1.483
    1QTZ  O4877 4877   8.042   2.172   2.031
    1QTZ  O4878 4878   7.639   2.131   1.917
    1QTZ  O4879 4879   8.242   2.157   2.565
    1QTZ  O4880 4880   7.923   2.112   1.551
    1QTZ  O4881 4881   8.162   2.047   1.476
    1QTZ  O4882 4882   7.598   2.096   2.388
    1QTZ  O4883 4883   7.877   2.002   1.928
    1QTZ  O4884 4884   7.513   2.323   1.767
    1QTZ  O4885 4885   8.114   2.247   2.311
    1QTZ  O4886 4886   7.848   2.298   1.332
    1QTZ  Si488 4887   8.315   2.090   1.423
    1QTZ  Si488 4888   7.749   2.143   2.325
    1QTZ  Si488 4889   8.039   2.029   1.939
    1QTZ  Si489 4890   7.552   2.272   1.929
    1QTZ  Si489 4891   8.140   2.279   2.485
    1QTZ  Si489 4892   7.874   2.266   1.503
    1QTZ  Si489 4893   7.829   2.406   2.506
    1QTZ  Si489 4894   7.576   2.343   1.604
    1QTZ  Si489 4895   8.128   2.274   2.133
    1QTZ  Si489 4896   7.733   2.029   2.008
    1QTZ  Si489 4897   8.359   2.029   2.526
    1QTZ  Si489 4898   8.051   2.015   1.602
    1QTZ  O4899 4899   7.865   2.496   1.106
    1QTZ  O4900 4900   8.418   2.550   0.210
    1QTZ  O4901 4901   8.160   2.421   0.558
    1QTZ  O4902 4902   7.729   2.880   0.672
    1QTZ  O4903 4903   8.281   2.859   1.038
    1QTZ  O4904 4904   7.960   2.904   0.025
    1QTZ  O4905 4905   8.041   2.795   1.113
    1QTZ  O4906 4906   7.770   2.843   0.201
    1QTZ  O4907 4907   8.328   2.750   0.662
    1QTZ  O4908 4908   7.856   2.574   0.822
    1QTZ  O4909 4909   8.089   2.496   0.278
    1QTZ  O4910 4910   7.802   2.744   1.056
    1QTZ  O4911 4911   7.517   2.792   0.176
    1QTZ  O4912 4912   8.107   2.675   0.525
    1QTZ  O4913 4913   7.716   2.631   0.580
    1QTZ  O4914 4914   8.205   2.608   1.024
    1QTZ  O4915 4915   7.947   2.652   0.114
    1QTZ  O4916 4916   8.215   2.591   0.034
    1QTZ  O4917 4917   7.631   2.552   0.992
    1QTZ  O4918 4918   7.926   2.495   0.530
    1QTZ  O4919 4919   7.602   2.857   0.432
    1QTZ  O4920 4920   8.108   2.776   0.817
    1QTZ  O4921 4921   7.687   2.715   0.003
    1QTZ  Si492 4922   8.373   2.656   0.084
    1QTZ  Si492 4923   7.794   2.592   0.984
    1QTZ  Si492 4924   8.074   2.523   0.456
    1QTZ  Si492 4925   7.635   2.777   0.581
    1QTZ  Si492 4926   8.152   2.762   0.988
    1QTZ  Si492 4927   7.844   2.776   0.063
    1QTZ  Si492 4928   7.888   2.837   1.166
    1QTZ  Si492 4929   7.620   2.891   0.264
    1QTZ  Si493 4930   8.165   2.776   0.650
    1QTZ  Si493 4931   7.817   2.524   0.659
    1QTZ  Si493 4932   8.329   2.515   1.087
    1QTZ  Si493 4933   8.062   2.528   0.104
    1QTZ  O4934 4934   7.851   2.543   2.413
    1QTZ  O4935 4935   8.401   2.495   1.533
    1QTZ  O4936 4936   8.097   2.426   2.065
    1QTZ  O4937 4937   7.653   2.878   2.009
    1QTZ  O4938 4938   8.256   2.900   2.475
    1QTZ  O4939 4939   7.998   2.857   1.566
    1QTZ  O4940 4940   7.988   2.839   2.555
    1QTZ  O4941 4941   7.738   2.800   1.597
    1QTZ  O4942 4942   8.277   2.742   2.058
    1QTZ  O4943 4943   7.765   2.607   2.157
    1QTZ  O4944 4944   8.355   2.546   1.257
    1QTZ  O4945 4945   8.095   2.527   1.772
    1QTZ  O4946 4946   7.784   2.798   2.379
    1QTZ  O4947 4947   7.504   2.744   1.483
    1QTZ  O4948 4948   8.042   2.670   2.031
    1QTZ  O4949 4949   7.637   2.629   1.917
    1QTZ  O4950 4950   8.243   2.655   2.564
    1QTZ  O4951 4951   7.922   2.610   1.552
    1QTZ  O4952 4952   8.161   2.546   1.476
    1QTZ  O4953 4953   7.598   2.594   2.388
    1QTZ  O4954 4954   7.875   2.500   1.928
    1QTZ  O4955 4955   7.513   2.821   1.767
    1QTZ  O4956 4956   8.115   2.744   2.310
    1QTZ  O4957 4957   7.847   2.795   1.332
    1QTZ  Si495 4958   8.315   2.588   1.423
    1QTZ  Si495 4959   7.748   2.641   2.325
    1QTZ  Si496 4960   8.038   2.527   1.939
    1QTZ  Si496 4961   7.552   2.771   1.930
    1QTZ  Si496 4962   8.140   2.776   2.484
    1QTZ  Si496 4963   7.874   2.764   1.503
    1QTZ  Si496 4964   7.829   2.904   2.505
    1QTZ  Si496 4965   7.575   2.840   1.605
    1QTZ  Si496 4966   8.129   2.771   2.133
    1QTZ  Si496 4967   7.732   2.527   2.007
    1QTZ  Si496 4968   8.359   2.527   2.526
    1QTZ  Si496 4969   8.051   2.513   1.602
    1QTZ  O4970 4970   7.864   2.994   1.106
    1QTZ  O4971 4971   8.418   3.048   0.210
    1QTZ  O4972 4972   8.161   2.919   0.559
    1QTZ  O4973 4973   7.731   3.377   0.672
    1QTZ  O4974 4974   8.280   3.357   1.038
    1QTZ  O4975 4975   7.960   3.402   0.025
    1QTZ  O4976 4976   8.042   3.292   1.114
    1QTZ  O4977 4977   7.770   3.341   0.201
    1QTZ  O4978 4978   8.326   3.247   0.661
    1QTZ  O4979 4979   7.855   3.071   0.822
    1QTZ  O4980 4980   8.088   2.993   0.279
    1QTZ  O4981 4981   7.802   3.242   1.056
    1QTZ  O4982 4982   7.517   3.290   0.176
    1QTZ  O4983 4983   8.104   3.172   0.525
    1QTZ  O4984 4984   7.717   3.129   0.580
    1QTZ  O4985 4985   8.205   3.106   1.023
    1QTZ  O4986 4986   7.947   3.150   0.114
    1QTZ  O4987 4987   8.215   3.089   0.034
    1QTZ  O4988 4988   7.630   3.050   0.992
    1QTZ  O4989 4989   7.926   2.991   0.531
    1QTZ  O4990 4990   7.603   3.355   0.432
    1QTZ  O4991 4991   8.108   3.274   0.817
    1QTZ  O4992 4992   7.687   3.213   0.002
    1QTZ  Si499 4993   8.373   3.154   0.084
    1QTZ  Si499 4994   7.793   3.090   0.985
    1QTZ  Si499 4995   8.074   3.020   0.456
    1QTZ  Si499 4996   7.636   3.275   0.582
    1QTZ  Si499 4997   8.152   3.259   0.988
    1QTZ  Si499 4998   7.844   3.274   0.063
    1QTZ  Si499 4999   7.888   3.335   1.166
    1QTZ  Si500 5000   7.620   3.388   0.264
    1QTZ  Si500 5001   8.164   3.274   0.650
    1QTZ  Si500 5002   7.817   3.020   0.660
    1QTZ  Si500 5003   8.329   3.013   1.086
    1QTZ  Si500 5004   8.062   3.026   0.105
    1QTZ  O5005 5005   7.851   3.040   2.413
    1QTZ  O5006 5006   8.401   2.992   1.533
    1QTZ  O5007 5007   8.098   2.923   2.064
    1QTZ  O5008 5008   7.653   3.376   2.009
    1QTZ  O5009 5009   8.255   3.398   2.475
    1QTZ  O5010 5010   7.998   3.354   1.567
    1QTZ  O5011 5011   7.988   3.336   2.556
    1QTZ  O5012 5012   7.738   3.298   1.597
    1QTZ  O5013 5013   8.277   3.240   2.059
    1QTZ  O5014 5014   7.766   3.105   2.157
    1QTZ  O5015 5015   8.356   3.044   1.257
    1QTZ  O5016 5016   8.095   3.025   1.772
    1QTZ  O5017 5017   7.784   3.296   2.379
    1QTZ  O5018 5018   7.505   3.242   1.483
    1QTZ  O5019 5019   8.042   3.167   2.031
    1QTZ  O5020 5020   7.638   3.127   1.917
    1QTZ  O5021 5021   8.243   3.152   2.564
    1QTZ  O5022 5022   7.923   3.107   1.551
    1QTZ  O5023 5023   8.162   3.043   1.476
    1QTZ  O5024 5024   7.598   3.091   2.388
    1QTZ  O5025 5025   7.876   2.998   1.928
    1QTZ  O5026 5026   7.513   3.319   1.767
    1QTZ  O5027 5027   8.115   3.242   2.311
    1QTZ  O5028 5028   7.848   3.293   1.332
    1QTZ  Si502 5029   8.315   3.085   1.423
    1QTZ  Si503 5030   7.748   3.139   2.324
    1QTZ  Si503 5031   8.039   3.025   1.939
    1QTZ  Si503 5032   7.552   3.268   1.930
    1QTZ  Si503 5033   8.140   3.274   2.485
    1QTZ  Si503 5034   7.874   3.262   1.503
    1QTZ  Si503 5035   7.829   3.401   2.506
    1QTZ  Si503 5036   7.575   3.338   1.605
    1QTZ  Si503 5037   8.129   3.269   2.133
    1QTZ  Si503 5038   7.733   3.025   2.007
    1QTZ  Si503 5039   8.359   3.025   2.526
    1QTZ  Si504 5040   8.051   3.010   1.602
    1QTZ  O5041 5041   8.698   0.007   1.106
    1QTZ  O5042 5042   9.252   0.061   0.210
    1QTZ  O5043 5043   8.995   3.417   0.558
    1QTZ  O5044 5044   8.565   0.391   0.672
    1QTZ  O5045 5045   9.114   0.370   1.038
    1QTZ  O5046 5046   8.794   0.416   0.025
    1QTZ  O5047 5047   8.876   0.306   1.114
    1QTZ  O5048 5048   8.604   0.355   0.201
    1QTZ  O5049 5049   9.161   0.261   0.661
    1QTZ  O5050 5050   8.690   0.084   0.822
    1QTZ  O5051 5051   8.922   0.007   0.279
    1QTZ  O5052 5052   8.636   0.255   1.057
    1QTZ  O5053 5053   8.351   0.304   0.177
    1QTZ  O5054 5054   8.939   0.186   0.525
    1QTZ  O5055 5055   8.551   0.142   0.580
    1QTZ  O5056 5056   9.039   0.119   1.023
    1QTZ  O5057 5057   8.781   0.163   0.114
    1QTZ  O5058 5058   9.049   0.102   0.034
    1QTZ  O5059 5059   8.465   0.063   0.992
    1QTZ  O5060 5060   8.760   0.005   0.531
    1QTZ  O5061 5061   8.437   0.368   0.433
    1QTZ  O5062 5062   8.942   0.287   0.817
    1QTZ  O5063 5063   8.521   0.227   0.003
    1QTZ  Si506 5064   9.207   0.167   0.084
    1QTZ  Si506 5065   8.628   0.103   0.985
    1QTZ  Si506 5066   8.908   0.034   0.456
    1QTZ  Si506 5067   8.470   0.288   0.582
    1QTZ  Si506 5068   8.986   0.273   0.988
    1QTZ  Si506 5069   8.678   0.288   0.063
    1QTZ  Si507 5070   8.722   0.348   1.166
    1QTZ  Si507 5071   8.454   0.402   0.265
    1QTZ  Si507 5072   8.998   0.288   0.650
    1QTZ  Si507 5073   8.651   0.034   0.660
    1QTZ  Si507 5074   9.163   0.026   1.086
    1QTZ  Si507 5075   8.896   0.040   0.105
    1QTZ  O5076 5076   8.685   0.054   2.413
    1QTZ  O5077 5077   9.235   0.006   1.533
    1QTZ  O5078 5078   8.931   3.421   2.064
    1QTZ  O5079 5079   8.487   0.390   2.010
    1QTZ  O5080 5080   9.089   0.412   2.475
    1QTZ  O5081 5081   8.832   0.368   1.567
    1QTZ  O5082 5082   8.822   0.350   2.556
    1QTZ  O5083 5083   8.572   0.311   1.598
    1QTZ  O5084 5084   9.111   0.253   2.058
    1QTZ  O5085 5085   8.600   0.118   2.157
    1QTZ  O5086 5086   9.190   0.057   1.257
    1QTZ  O5087 5087   8.929   0.038   1.772
    1QTZ  O5088 5088   8.618   0.309   2.379
    1QTZ  O5089 5089   8.338   0.255   1.484
    1QTZ  O5090 5090   8.876   0.181   2.031
    1QTZ  O5091 5091   8.471   0.141   1.918
    1QTZ  O5092 5092   9.077   0.166   2.564
    1QTZ  O5093 5093   8.757   0.121   1.551
    1QTZ  O5094 5094   8.996   0.057   1.476
    1QTZ  O5095 5095   8.432   0.105   2.388
    1QTZ  O5096 5096   8.710   0.012   1.928
    1QTZ  O5097 5097   8.347   0.333   1.768
    1QTZ  O5098 5098   8.949   0.255   2.311
    1QTZ  O5099 5099   8.681   0.307   1.332
    1QTZ  Si510 5100   9.149   0.099   1.423
    1QTZ  Si510 5101   8.582   0.152   2.325
    1QTZ  Si510 5102   8.872   0.039   1.939
    1QTZ  Si510 5103   8.385   0.282   1.930
    1QTZ  Si510 5104   8.974   0.288   2.485
    1QTZ  Si510 5105   8.708   0.275   1.503
    1QTZ  Si510 5106   8.664   0.415   2.506
    1QTZ  Si510 5107   8.409   0.352   1.605
    1QTZ  Si510 5108   8.963   0.283   2.133
    1QTZ  Si510 5109   8.566   0.039   2.008
    1QTZ  Si511 5110   9.193   0.038   2.526
    1QTZ  Si511 5111   8.886   0.024   1.602
    1QTZ  O5112 5112   8.699   0.505   1.106
    1QTZ  O5113 5113   9.252   0.559   0.210
    1QTZ  O5114 5114   8.994   0.430   0.559
    1QTZ  O5115 5115   8.565   0.889   0.673
    1QTZ  O5116 5116   9.114   0.868   1.038
    1QTZ  O5117 5117   8.794   0.913   0.026
    1QTZ  O5118 5118   8.876   0.804   1.114
    1QTZ  O5119 5119   8.604   0.853   0.202
    1QTZ  O5120 5120   9.161   0.758   0.661
    1QTZ  O5121 5121   8.690   0.582   0.822
    1QTZ  O5122 5122   8.922   0.505   0.279
    1QTZ  O5123 5123   8.636   0.753   1.057
    1QTZ  O5124 5124   8.351   0.802   0.177
    1QTZ  O5125 5125   8.939   0.684   0.525
    1QTZ  O5126 5126   8.550   0.640   0.581
    1QTZ  O5127 5127   9.039   0.617   1.023
    1QTZ  O5128 5128   8.780   0.661   0.114
    1QTZ  O5129 5129   9.048   0.600   0.034
    1QTZ  O5130 5130   8.464   0.561   0.992
    1QTZ  O5131 5131   8.760   0.503   0.531
    1QTZ  O5132 5132   8.437   0.866   0.433
    1QTZ  O5133 5133   8.942   0.785   0.817
    1QTZ  O5134 5134   8.520   0.725   0.003
    1QTZ  Si513 5135   9.207   0.665   0.084
    1QTZ  Si513 5136   8.627   0.601   0.985
    1QTZ  Si513 5137   8.908   0.532   0.456
    1QTZ  Si513 5138   8.470   0.786   0.582
    1QTZ  Si513 5139   8.985   0.771   0.988
    1QTZ  Si514 5140   8.677   0.786   0.064
    1QTZ  Si514 5141   8.722   0.846   1.167
    1QTZ  Si514 5142   8.454   0.900   0.265
    1QTZ  Si514 5143   8.998   0.785   0.650
    1QTZ  Si514 5144   8.651   0.532   0.660
    1QTZ  Si514 5145   9.163   0.524   1.087
    1QTZ  Si514 5146   8.896   0.538   0.105
    1QTZ  O5147 5147   8.685   0.552   2.413
    1QTZ  O5148 5148   9.235   0.504   1.533
    1QTZ  O5149 5149   8.933   0.434   2.064
    1QTZ  O5150 5150   8.486   0.887   2.010
    1QTZ  O5151 5151   9.089   0.909   2.476
    1QTZ  O5152 5152   8.832   0.866   1.566
    1QTZ  O5153 5153   8.821   0.848   2.556
    1QTZ  O5154 5154   8.573   0.809   1.598
    1QTZ  O5155 5155   9.110   0.753   2.060
    1QTZ  O5156 5156   8.600   0.616   2.157
    1QTZ  O5157 5157   9.189   0.556   1.257
    1QTZ  O5158 5158   8.929   0.536   1.773
    1QTZ  O5159 5159   8.618   0.807   2.380
    1QTZ  O5160 5160   8.339   0.753   1.484
    1QTZ  O5161 5161   8.876   0.679   2.031
    1QTZ  O5162 5162   8.473   0.638   1.918
    1QTZ  O5163 5163   9.076   0.664   2.565
    1QTZ  O5164 5164   8.757   0.619   1.552
    1QTZ  O5165 5165   8.996   0.554   1.476
    1QTZ  O5166 5166   8.432   0.602   2.389
    1QTZ  O5167 5167   8.711   0.508   1.929
    1QTZ  O5168 5168   8.347   0.829   1.768
    1QTZ  O5169 5169   8.948   0.753   2.311
    1QTZ  O5170 5170   8.682   0.804   1.332
    1QTZ  Si517 5171   9.149   0.597   1.423
    1QTZ  Si517 5172   8.583   0.650   2.325
    1QTZ  Si517 5173   8.873   0.536   1.940
    1QTZ  Si517 5174   8.386   0.779   1.930
    1QTZ  Si517 5175   8.974   0.786   2.485
    1QTZ  Si517 5176   8.708   0.773   1.503
    1QTZ  Si517 5177   8.663   0.913   2.506
    1QTZ  Si517 5178   8.410   0.849   1.605
    1QTZ  Si517 5179   8.962   0.781   2.134
    1QTZ  Si518 5180   8.567   0.536   2.008
    1QTZ  Si518 5181   9.193   0.536   2.526
    1QTZ  Si518 5182   8.886   0.522   1.602
    1QTZ  O5183 5183   8.699   1.003   1.107
    1QTZ  O5184 5184   9.252   1.057   0.210
    1QTZ  O5185 5185   8.995   0.928   0.559
    1QTZ  O5186 5186   8.564   1.386   0.673
    1QTZ  O5187 5187   9.114   1.366   1.038
    1QTZ  O5188 5188   8.794   1.411   0.025
    1QTZ  O5189 5189   8.875   1.302   1.114
    1QTZ  O5190 5190   8.604   1.350   0.202
    1QTZ  O5191 5191   9.161   1.257   0.662
    1QTZ  O5192 5192   8.690   1.080   0.823
    1QTZ  O5193 5193   8.922   1.003   0.279
    1QTZ  O5194 5194   8.636   1.251   1.057
    1QTZ  O5195 5195   8.351   1.299   0.177
    1QTZ  O5196 5196   8.940   1.182   0.526
    1QTZ  O5197 5197   8.550   1.138   0.580
    1QTZ  O5198 5198   9.039   1.115   1.024
    1QTZ  O5199 5199   8.781   1.159   0.115
    1QTZ  O5200 5200   9.049   1.098   0.034
    1QTZ  O5201 5201   8.465   1.058   0.993
    1QTZ  O5202 5202   8.760   1.001   0.531
    1QTZ  O5203 5203   8.436   1.364   0.433
    1QTZ  O5204 5204   8.942   1.283   0.818
    1QTZ  O5205 5205   8.520   1.222   0.003
    1QTZ  Si520 5206   9.207   1.163   0.084
    1QTZ  Si520 5207   8.627   1.099   0.985
    1QTZ  Si520 5208   8.908   1.030   0.457
    1QTZ  Si520 5209   8.470   1.284   0.582
    1QTZ  Si521 5210   8.985   1.269   0.988
    1QTZ  Si521 5211   8.677   1.283   0.064
    1QTZ  Si521 5212   8.722   1.344   1.167
    1QTZ  Si521 5213   8.454   1.397   0.265
    1QTZ  Si521 5214   8.998   1.283   0.651
    1QTZ  Si521 5215   8.651   1.030   0.660
    1QTZ  Si521 5216   9.163   1.022   1.087
    1QTZ  Si521 5217   8.896   1.035   0.105
    1QTZ  O5218 5218   8.685   1.049   2.413
    1QTZ  O5219 5219   9.235   1.002   1.534
    1QTZ  O5220 5220   8.930   0.933   2.065
    1QTZ  O5221 5221   8.487   1.385   2.010
    1QTZ  O5222 5222   9.090   1.407   2.475
    1QTZ  O5223 5223   8.831   1.363   1.567
    1QTZ  O5224 5224   8.822   1.346   2.556
    1QTZ  O5225 5225   8.572   1.307   1.598
    1QTZ  O5226 5226   9.111   1.248   2.058
    1QTZ  O5227 5227   8.599   1.114   2.158
    1QTZ  O5228 5228   9.189   1.052   1.258
    1QTZ  O5229 5229   8.928   1.034   1.773
    1QTZ  O5230 5230   8.618   1.305   2.380
    1QTZ  O5231 5231   8.338   1.251   1.484
    1QTZ  O5232 5232   8.876   1.177   2.031
    1QTZ  O5233 5233   8.470   1.136   1.918
    1QTZ  O5234 5234   9.077   1.161   2.565
    1QTZ  O5235 5235   8.756   1.117   1.552
    1QTZ  O5236 5236   8.995   1.053   1.476
    1QTZ  O5237 5237   8.432   1.101   2.389
    1QTZ  O5238 5238   8.708   1.008   1.928
    1QTZ  O5239 5239   8.346   1.329   1.768
    1QTZ  O5240 5240   8.949   1.251   2.311
    1QTZ  O5241 5241   8.681   1.302   1.333
    1QTZ  Si524 5242   9.149   1.094   1.423
    1QTZ  Si524 5243   8.582   1.148   2.325
    1QTZ  Si524 5244   8.871   1.034   1.940
    1QTZ  Si524 5245   8.385   1.278   1.931
    1QTZ  Si524 5246   8.974   1.283   2.485
    1QTZ  Si524 5247   8.707   1.271   1.504
    1QTZ  Si524 5248   8.664   1.411   2.506
    1QTZ  Si524 5249   8.409   1.347   1.606
    1QTZ  Si525 5250   8.963   1.278   2.133
    1QTZ  Si525 5251   8.565   1.034   2.008
    1QTZ  Si525 5252   9.193   1.034   2.526
    1QTZ  Si525 5253   8.885   1.020   1.602
    1QTZ  O5254 5254   8.698   1.500   1.107
    1QTZ  O5255 5255   9.252   1.555   0.211
    1QTZ  O5256 5256   8.994   1.426   0.559
    1QTZ  O5257 5257   8.566   1.884   0.672
    1QTZ  O5258 5258   9.114   1.863   1.037
    1QTZ  O5259 5259   8.794   1.909   0.025
    1QTZ  O5260 5260   8.876   1.799   1.114
    1QTZ  O5261 5261   8.604   1.848   0.201
    1QTZ  O5262 5262   9.160   1.753   0.661
    1QTZ  O5263 5263   8.690   1.577   0.823
    1QTZ  O5264 5264   8.922   1.500   0.279
    1QTZ  O5265 5265   8.636   1.749   1.057
    1QTZ  O5266 5266   8.351   1.797   0.177
    1QTZ  O5267 5267   8.938   1.679   0.525
    1QTZ  O5268 5268   8.550   1.635   0.581
    1QTZ  O5269 5269   9.039   1.612   1.023
    1QTZ  O5270 5270   8.781   1.657   0.115
    1QTZ  O5271 5271   9.049   1.595   0.034
    1QTZ  O5272 5272   8.464   1.557   0.992
    1QTZ  O5273 5273   8.760   1.498   0.532
    1QTZ  O5274 5274   8.437   1.862   0.433
    1QTZ  O5275 5275   8.942   1.780   0.817
    1QTZ  O5276 5276   8.521   1.720   0.003
    1QTZ  Si527 5277   9.207   1.660   0.084
    1QTZ  Si527 5278   8.627   1.597   0.985
    1QTZ  Si527 5279   8.907   1.527   0.457
    1QTZ  Si528 5280   8.471   1.782   0.582
    1QTZ  Si528 5281   8.986   1.766   0.987
    1QTZ  Si528 5282   8.678   1.781   0.064
    1QTZ  Si528 5283   8.722   1.842   1.166
    1QTZ  Si528 5284   8.454   1.895   0.265
    1QTZ  Si528 5285   8.997   1.781   0.650
    1QTZ  Si528 5286   8.651   1.527   0.660
    1QTZ  Si528 5287   9.163   1.520   1.087
    1QTZ  Si528 5288   8.896   1.533   0.105
    1QTZ  O5289 5289   8.686   1.547   2.413
    1QTZ  O5290 5290   9.235   1.499   1.533
    1QTZ  O5291 5291   8.934   1.430   2.064
    1QTZ  O5292 5292   8.486   1.883   2.009
    1QTZ  O5293 5293   9.090   1.905   2.476
    1QTZ  O5294 5294   8.832   1.861   1.566
    1QTZ  O5295 5295   8.822   1.844   2.556
    1QTZ  O5296 5296   8.573   1.805   1.598
    1QTZ  O5297 5297   9.111   1.749   2.060
    1QTZ  O5298 5298   8.600   1.612   2.157
    1QTZ  O5299 5299   9.190   1.551   1.258
    1QTZ  O5300 5300   8.929   1.532   1.773
    1QTZ  O5301 5301   8.618   1.803   2.380
    1QTZ  O5302 5302   8.339   1.749   1.483
    1QTZ  O5303 5303   8.876   1.674   2.031
    1QTZ  O5304 5304   8.473   1.634   1.917
    1QTZ  O5305 5305   9.076   1.659   2.565
    1QTZ  O5306 5306   8.757   1.614   1.552
    1QTZ  O5307 5307   8.996   1.549   1.476
    1QTZ  O5308 5308   8.432   1.598   2.388
    1QTZ  O5309 5309   8.711   1.504   1.929
    1QTZ  O5310 5310   8.348   1.825   1.767
    1QTZ  O5311 5311   8.948   1.749   2.311
    1QTZ  O5312 5312   8.682   1.800   1.332
    1QTZ  Si531 5313   9.149   1.592   1.424
    1QTZ  Si531 5314   8.583   1.645   2.325
    1QTZ  Si531 5315   8.874   1.532   1.940
    1QTZ  Si531 5316   8.386   1.775   1.930
    1QTZ  Si531 5317   8.974   1.781   2.485
    1QTZ  Si531 5318   8.708   1.768   1.503
    1QTZ  Si531 5319   8.663   1.909   2.506
    1QTZ  Si532 5320   8.410   1.845   1.605
    1QTZ  Si532 5321   8.962   1.777   2.134
    1QTZ  Si532 5322   8.568   1.532   2.008
    1QTZ  Si532 5323   9.193   1.532   2.527
    1QTZ  Si532 5324   8.885   1.517   1.602
    1QTZ  O5325 5325   8.699   1.998   1.106
    1QTZ  O5326 5326   9.252   2.052   0.210
    1QTZ  O5327 5327   8.995   1.923   0.559
    1QTZ  O5328 5328   8.563   2.382   0.672
    1QTZ  O5329 5329   9.115   2.361   1.038
    1QTZ  O5330 5330   8.794   2.406   0.025
    1QTZ  O5331 5331   8.876   2.297   1.114
    1QTZ  O5332 5332   8.604   2.345   0.201
    1QTZ  O5333 5333   9.162   2.253   0.662
    1QTZ  O5334 5334   8.690   2.076   0.822
    1QTZ  O5335 5335   8.923   1.998   0.279
    1QTZ  O5336 5336   8.636   2.246   1.056
    1QTZ  O5337 5337   8.351   2.295   0.177
    1QTZ  O5338 5338   8.941   2.177   0.525
    1QTZ  O5339 5339   8.550   2.133   0.580
    1QTZ  O5340 5340   9.039   2.110   1.024
    1QTZ  O5341 5341   8.781   2.154   0.114
    1QTZ  O5342 5342   9.049   2.093   0.034
    1QTZ  O5343 5343   8.465   2.054   0.992
    1QTZ  O5344 5344   8.761   1.998   0.530
    1QTZ  O5345 5345   8.436   2.359   0.432
    1QTZ  O5346 5346   8.942   2.278   0.817
    1QTZ  O5347 5347   8.521   2.217   0.003
    1QTZ  Si534 5348   9.207   2.158   0.084
    1QTZ  Si534 5349   8.628   2.094   0.985
    1QTZ  Si535 5350   8.909   2.026   0.456
    1QTZ  Si535 5351   8.469   2.279   0.582
    1QTZ  Si535 5352   8.986   2.264   0.988
    1QTZ  Si535 5353   8.678   2.279   0.063
    1QTZ  Si535 5354   8.722   2.339   1.166
    1QTZ  Si535 5355   8.454   2.393   0.264
    1QTZ  Si535 5356   8.999   2.279   0.650
    1QTZ  Si535 5357   8.652   2.026   0.659
    1QTZ  Si535 5358   9.163   2.017   1.087
    1QTZ  Si535 5359   8.897   2.031   0.105
    1QTZ  O5360 5360   8.685   2.045   2.413
    1QTZ  O5361 5361   9.235   1.997   1.534
    1QTZ  O5362 5362   8.930   1.928   2.065
    1QTZ  O5363 5363   8.487   2.381   2.009
    1QTZ  O5364 5364   9.090   2.403   2.475
    1QTZ  O5365 5365   8.832   2.359   1.566
    1QTZ  O5366 5366   8.822   2.341   2.555
    1QTZ  O5367 5367   8.572   2.303   1.598
    1QTZ  O5368 5368   9.111   2.244   2.058
    1QTZ  O5369 5369   8.599   2.109   2.157
    1QTZ  O5370 5370   9.190   2.048   1.257
    1QTZ  O5371 5371   8.929   2.029   1.773
    1QTZ  O5372 5372   8.618   2.300   2.379
    1QTZ  O5373 5373   8.338   2.246   1.484
    1QTZ  O5374 5374   8.876   2.172   2.031
    1QTZ  O5375 5375   8.471   2.132   1.918
    1QTZ  O5376 5376   9.077   2.157   2.564
    1QTZ  O5377 5377   8.757   2.112   1.552
    1QTZ  O5378 5378   8.996   2.048   1.476
    1QTZ  O5379 5379   8.432   2.096   2.389
    1QTZ  O5380 5380   8.709   2.003   1.928
    1QTZ  O5381 5381   8.347   2.324   1.768
    1QTZ  O5382 5382   8.949   2.246   2.310
    1QTZ  O5383 5383   8.681   2.298   1.332
    1QTZ  Si538 5384   9.149   2.090   1.423
    1QTZ  Si538 5385   8.582   2.143   2.325
    1QTZ  Si538 5386   8.872   2.030   1.939
    1QTZ  Si538 5387   8.386   2.273   1.930
    1QTZ  Si538 5388   8.975   2.279   2.484
    1QTZ  Si538 5389   8.708   2.266   1.503
    1QTZ  Si539 5390   8.664   2.406   2.505
    1QTZ  Si539 5391   8.409   2.343   1.605
    1QTZ  Si539 5392   8.963   2.274   2.133
    1QTZ  Si539 5393   8.566   2.029   2.008
    1QTZ  Si539 5394   9.193   2.029   2.526
    1QTZ  Si539 5395   8.885   2.015   1.602
    1QTZ  O5396 5396   8.698   2.496   1.106
    1QTZ  O5397 5397   9.252   2.550   0.210
    1QTZ  O5398 5398   8.995   2.421   0.559
    1QTZ  O5399 5399   8.566   2.880   0.672
    1QTZ  O5400 5400   9.115   2.859   1.037
    1QTZ  O5401 5401   8.794   2.904   0.025
    1QTZ  O5402 5402   8.876   2.794   1.113
    1QTZ  O5403 5403   8.604   2.843   0.201
    1QTZ  O5404 5404   9.160   2.749   0.661
    1QTZ  O5405 5405   8.690   2.573   0.822
    1QTZ  O5406 5406   8.922   2.495   0.279
    1QTZ  O5407 5407   8.636   2.744   1.056
    1QTZ  O5408 5408   8.351   2.792   0.176
    1QTZ  O5409 5409   8.938   2.675   0.525
    1QTZ  O5410 5410   8.551   2.631   0.580
    1QTZ  O5411 5411   9.040   2.608   1.023
    1QTZ  O5412 5412   8.781   2.652   0.114
    1QTZ  O5413 5413   9.049   2.591   0.034
    1QTZ  O5414 5414   8.464   2.552   0.992
    1QTZ  O5415 5415   8.760   2.493   0.531
    1QTZ  O5416 5416   8.437   2.857   0.432
    1QTZ  O5417 5417   8.942   2.776   0.817
    1QTZ  O5418 5418   8.521   2.715   0.002
    1QTZ  Si541 5419   9.207   2.656   0.084
    1QTZ  Si542 5420   8.627   2.592   0.985
    1QTZ  Si542 5421   8.908   2.523   0.456
    1QTZ  Si542 5422   8.471   2.777   0.582
    1QTZ  Si542 5423   8.986   2.762   0.987
    1QTZ  Si542 5424   8.678   2.777   0.063
    1QTZ  Si542 5425   8.722   2.837   1.166
    1QTZ  Si542 5426   8.454   2.891   0.264
    1QTZ  Si542 5427   8.998   2.776   0.650
    1QTZ  Si542 5428   8.651   2.522   0.660
    1QTZ  Si542 5429   9.164   2.515   1.086
    1QTZ  Si543 5430   8.896   2.528   0.105
    1QTZ  O5431 5431   8.686   2.543   2.413
    1QTZ  O5432 5432   9.236   2.495   1.533
    1QTZ  O5433 5433   8.933   2.426   2.064
    1QTZ  O5434 5434   8.487   2.878   2.009
    1QTZ  O5435 5435   9.090   2.900   2.475
    1QTZ  O5436 5436   8.832   2.856   1.566
    1QTZ  O5437 5437   8.822   2.839   2.555
    1QTZ  O5438 5438   8.573   2.800   1.597
    1QTZ  O5439 5439   9.111   2.743   2.059
    1QTZ  O5440 5440   8.600   2.607   2.157
    1QTZ  O5441 5441   9.190   2.546   1.257
    1QTZ  O5442 5442   8.930   2.527   1.772
    1QTZ  O5443 5443   8.618   2.798   2.379
    1QTZ  O5444 5444   8.339   2.744   1.483
    1QTZ  O5445 5445   8.877   2.670   2.031
    1QTZ  O5446 5446   8.473   2.629   1.917
    1QTZ  O5447 5447   9.077   2.655   2.564
    1QTZ  O5448 5448   8.757   2.610   1.551
    1QTZ  O5449 5449   8.996   2.545   1.476
    1QTZ  O5450 5450   8.433   2.594   2.388
    1QTZ  O5451 5451   8.711   2.500   1.928
    1QTZ  O5452 5452   8.348   2.821   1.767
    1QTZ  O5453 5453   8.949   2.744   2.311
    1QTZ  O5454 5454   8.682   2.796   1.332
    1QTZ  Si545 5455   9.149   2.588   1.423
    1QTZ  Si545 5456   8.583   2.641   2.325
    1QTZ  Si545 5457   8.873   2.527   1.939
    1QTZ  Si545 5458   8.386   2.770   1.930
    1QTZ  Si545 5459   8.974   2.777   2.485
    1QTZ  Si546 5460   8.708   2.764   1.503
    1QTZ  Si546 5461   8.664   2.904   2.506
    1QTZ  Si546 5462   8.410   2.840   1.605
    1QTZ  Si546 5463   8.963   2.772   2.133
    1QTZ  Si546 5464   8.567   2.527   2.008
    1QTZ  Si546 5465   9.193   2.527   2.526
    1QTZ  Si546 5466   8.886   2.513   1.602
    1QTZ  O5467 5467   8.699   2.993   1.106
    1QTZ  O5468 5468   9.252   3.048   0.209
    1QTZ  O5469 5469   8.994   2.919   0.558
    1QTZ  O5470 5470   8.564   3.377   0.672
    1QTZ  O5471 5471   9.115   3.356   1.037
    1QTZ  O5472 5472   8.794   3.402   0.025
    1QTZ  O5473 5473   8.876   3.293   1.113
    1QTZ  O5474 5474   8.604   3.341   0.201
    1QTZ  O5475 5475   9.162   3.248   0.661
    1QTZ  O5476 5476   8.690   3.071   0.822
    1QTZ  O5477 5477   8.923   2.994   0.278
    1QTZ  O5478 5478   8.636   3.242   1.056
    1QTZ  O5479 5479   8.351   3.290   0.177
    1QTZ  O5480 5480   8.940   3.173   0.524
    1QTZ  O5481 5481   8.550   3.129   0.580
    1QTZ  O5482 5482   9.039   3.106   1.023
    1QTZ  O5483 5483   8.781   3.150   0.114
    1QTZ  O5484 5484   9.049   3.089   0.033
    1QTZ  O5485 5485   8.465   3.049   0.992
    1QTZ  O5486 5486   8.760   2.993   0.530
    1QTZ  O5487 5487   8.437   3.355   0.432
    1QTZ  O5488 5488   8.942   3.273   0.817
    1QTZ  O5489 5489   8.521   3.213   0.003
    1QTZ  Si549 5490   9.207   3.154   0.083
    1QTZ  Si549 5491   8.628   3.090   0.985
    1QTZ  Si549 5492   8.908   3.021   0.456
    1QTZ  Si549 5493   8.470   3.275   0.582
    1QTZ  Si549 5494   8.986   3.259   0.987
    1QTZ  Si549 5495   8.678   3.274   0.063
    1QTZ  Si549 5496   8.722   3.335   1.166
    1QTZ  Si549 5497   8.454   3.388   0.265
    1QTZ  Si549 5498   8.999   3.274   0.650
    1QTZ  Si549 5499   8.651   3.021   0.659
    1QTZ  Si550 5500   9.163   3.013   1.086
    1QTZ  Si550 5501   8.896   3.026   0.104
    1QTZ  O5502 5502   8.686   3.040   2.413
    1QTZ  O5503 5503   9.235   2.992   1.533
    1QTZ  O5504 5504   8.932   2.923   2.064
    1QTZ  O5505 5505   8.487   3.376   2.009
    1QTZ  O5506 5506   9.090   3.398   2.475
    1QTZ  O5507 5507   8.832   3.354   1.566
    1QTZ  O5508 5508   8.822   3.337   2.555
    1QTZ  O5509 5509   8.573   3.298   1.597
    1QTZ  O5510 5510   9.111   3.241   2.058
    1QTZ  O5511 5511   8.600   3.105   2.157
    1QTZ  O5512 5512   9.190   3.044   1.257
    1QTZ  O5513 5513   8.929   3.025   1.772
    1QTZ  O5514 5514   8.618   3.296   2.379
    1QTZ  O5515 5515   8.339   3.242   1.483
    1QTZ  O5516 5516   8.876   3.167   2.031
    1QTZ  O5517 5517   8.472   3.127   1.917
    1QTZ  O5518 5518   9.077   3.153   2.564
    1QTZ  O5519 5519   8.757   3.107   1.551
    1QTZ  O5520 5520   8.996   3.043   1.476
    1QTZ  O5521 5521   8.432   3.091   2.388
    1QTZ  O5522 5522   8.710   2.998   1.928
    1QTZ  O5523 5523   8.347   3.319   1.767
    1QTZ  O5524 5524   8.948   3.242   2.310
    1QTZ  O5525 5525   8.682   3.293   1.332
    1QTZ  Si552 5526   9.149   3.085   1.423
    1QTZ  Si552 5527   8.583   3.139   2.325
    1QTZ  Si552 5528   8.873   3.025   1.939
    1QTZ  Si552 5529   8.386   3.268   1.930
    1QTZ  Si553 5530   8.974   3.274   2.484
    1QTZ  Si553 5531   8.708   3.261   1.503
    1QTZ  Si553 5532   8.664   3.402   2.506
    1QTZ  Si553 5533   8.410   3.338   1.605
    1QTZ  Si553 5534   8.963   3.269   2.133
    1QTZ  Si553 5535   8.567   3.025   2.008
    1QTZ  Si553 5536   9.193   3.025   2.526
    1QTZ  Si553 5537   8.886   3.010   1.602
    1QTZ  O5538 5538   9.533   0.007   1.105
    1QTZ  O5539 5539   9.828   3.417   0.558
    1QTZ  O5540 5540   9.399   0.391   0.672
    1QTZ  O5541 5541   9.949   0.370   1.037
    1QTZ  O5542 5542   9.628   0.416   0.025
    1QTZ  O5543 5543   9.710   0.306   1.113
    1QTZ  O5544 5544   9.438   0.355   0.201
    1QTZ  O5545 5545   9.995   0.261   0.661
    1QTZ  O5546 5546   9.524   0.085   0.821
    1QTZ  O5547 5547   9.756   0.007   0.278
    1QTZ  O5548 5548   9.470   0.255   1.056
    1QTZ  O5549 5549   9.185   0.304   0.177
    1QTZ  O5550 5550   9.774   0.186   0.524
    1QTZ  O5551 5551   9.384   0.142   0.580
    1QTZ  O5552 5552   9.873   0.119   1.023
    1QTZ  O5553 5553   9.615   0.164   0.114
    1QTZ  O5554 5554   9.883   0.103   0.033
    1QTZ  O5555 5555   9.299   0.063   0.991
    1QTZ  O5556 5556   9.594   0.006   0.530
    1QTZ  O5557 5557   9.271   0.369   0.432
    1QTZ  O5558 5558   9.776   0.287   0.816
    1QTZ  O5559 5559   9.355   0.227   0.002
    1QTZ  Si556 5560   6.704   0.167   0.083
    1QTZ  Si556 5561   9.462   0.103   0.984
    1QTZ  Si556 5562   9.742   0.035   0.455
    1QTZ  Si556 5563   9.304   0.288   0.582
    1QTZ  Si556 5564   9.820   0.273   0.987
    1QTZ  Si556 5565   9.512   0.288   0.063
    1QTZ  Si556 5566   9.556   0.348   1.166
    1QTZ  Si556 5567   9.288   0.402   0.264
    1QTZ  Si556 5568   9.832   0.288   0.649
    1QTZ  Si556 5569   9.485   0.034   0.659
    1QTZ  Si557 5570   9.997   0.027   1.086
    1QTZ  Si557 5571   9.730   0.040   0.104
    1QTZ  O5572 5572   9.520   0.054   2.413
    1QTZ  O5573 5573   9.767   3.421   2.064
    1QTZ  O5574 5574   9.321   0.389   2.009
    1QTZ  O5575 5575   9.924   0.411   2.475
    1QTZ  O5576 5576   9.666   0.368   1.566
    1QTZ  O5577 5577   9.656   0.350   2.555
    1QTZ  O5578 5578   9.407   0.312   1.597
    1QTZ  O5579 5579   9.944   0.255   2.059
    1QTZ  O5580 5580   9.434   0.118   2.157
    1QTZ  O5581 5581   9.763   0.038   1.772
    1QTZ  O5582 5582   9.452   0.309   2.379
    1QTZ  O5583 5583   9.173   0.255   1.483
    1QTZ  O5584 5584   9.710   0.181   2.030
    1QTZ  O5585 5585   9.307   0.140   1.917
    1QTZ  O5586 5586   9.911   0.166   2.564
    1QTZ  O5587 5587   9.591   0.121   1.551
    1QTZ  O5588 5588   9.830   0.057   1.475
    1QTZ  O5589 5589   9.267   0.105   2.388
    1QTZ  O5590 5590   9.544   0.011   1.928
    1QTZ  O5591 5591   9.181   0.332   1.767
    1QTZ  O5592 5592   9.782   0.255   2.310
    1QTZ  O5593 5593   9.516   0.306   1.332
    1QTZ  Si559 5594   9.983   0.099   1.423
    1QTZ  Si559 5595   9.417   0.152   2.324
    1QTZ  Si559 5596   9.707   0.038   1.939
    1QTZ  Si559 5597   9.220   0.281   1.930
    1QTZ  Si559 5598   9.808   0.288   2.484
    1QTZ  Si559 5599   9.542   0.275   1.502
    1QTZ  Si560 5600   9.498   0.415   2.505
    1QTZ  Si560 5601   9.244   0.352   1.604
    1QTZ  Si560 5602   9.796   0.283   2.133
    1QTZ  Si560 5603   9.401   0.038   2.007
    1QTZ  Si560 5604  10.027   0.038   2.526
    1QTZ  Si560 5605   9.720   0.024   1.601
    1QTZ  O5606 5606   9.532   0.505   1.106
    1QTZ  O5607 5607   9.829   0.430   0.558
    1QTZ  O5608 5608   9.398   0.888   0.672
    1QTZ  O5609 5609   9.948   0.868   1.038
    1QTZ  O5610 5610   9.628   0.914   0.025
    1QTZ  O5611 5611   9.709   0.804   1.114
    1QTZ  O5612 5612   9.438   0.853   0.201
    1QTZ  O5613 5613   9.995   0.759   0.661
    1QTZ  O5614 5614   9.524   0.582   0.822
    1QTZ  O5615 5615   9.756   0.505   0.279
    1QTZ  O5616 5616   9.470   0.753   1.056
    1QTZ  O5617 5617   9.185   0.802   0.177
    1QTZ  O5618 5618   9.773   0.684   0.525
    1QTZ  O5619 5619   9.384   0.640   0.580
    1QTZ  O5620 5620   9.873   0.617   1.023
    1QTZ  O5621 5621   9.615   0.661   0.114
    1QTZ  O5622 5622   9.883   0.600   0.034
    1QTZ  O5623 5623   9.298   0.561   0.992
    1QTZ  O5624 5624   9.594   0.503   0.531
    1QTZ  O5625 5625   9.271   0.866   0.432
    1QTZ  O5626 5626   9.776   0.785   0.817
    1QTZ  O5627 5627   9.355   0.725   0.003
    1QTZ  Si562 5628   6.704   0.665   0.084
    1QTZ  Si562 5629   9.461   0.601   0.985
    1QTZ  Si563 5630   9.742   0.532   0.456
    1QTZ  Si563 5631   9.304   0.786   0.582
    1QTZ  Si563 5632   9.819   0.771   0.988
    1QTZ  Si563 5633   9.511   0.786   0.063
    1QTZ  Si563 5634   9.556   0.846   1.166
    1QTZ  Si563 5635   9.288   0.900   0.265
    1QTZ  Si563 5636   9.832   0.786   0.650
    1QTZ  Si563 5637   9.485   0.532   0.660
    1QTZ  Si563 5638   9.997   0.524   1.086
    1QTZ  Si563 5639   9.730   0.538   0.105
    1QTZ  O5640 5640   9.519   0.552   2.413
    1QTZ  O5641 5641   9.764   0.435   2.064
    1QTZ  O5642 5642   9.321   0.887   2.009
    1QTZ  O5643 5643   9.924   0.909   2.475
    1QTZ  O5644 5644   9.666   0.865   1.567
    1QTZ  O5645 5645   9.656   0.848   2.555
    1QTZ  O5646 5646   9.406   0.809   1.598
    1QTZ  O5647 5647   9.945   0.750   2.058
    1QTZ  O5648 5648   9.434   0.616   2.157
    1QTZ  O5649 5649   9.763   0.536   1.772
    1QTZ  O5650 5650   9.452   0.807   2.379
    1QTZ  O5651 5651   9.172   0.753   1.484
    1QTZ  O5652 5652   9.710   0.679   2.030
    1QTZ  O5653 5653   9.304   0.638   1.918
    1QTZ  O5654 5654   9.911   0.663   2.564
    1QTZ  O5655 5655   9.590   0.619   1.551
    1QTZ  O5656 5656   9.829   0.555   1.476
    1QTZ  O5657 5657   9.266   0.603   2.388
    1QTZ  O5658 5658   9.543   0.510   1.927
    1QTZ  O5659 5659   9.181   0.831   1.768
    1QTZ  O5660 5660   9.783   0.753   2.310
    1QTZ  O5661 5661   9.515   0.805   1.332
    1QTZ  Si566 5662   9.983   0.597   1.423
    1QTZ  Si566 5663   9.416   0.650   2.325
    1QTZ  Si566 5664   9.706   0.536   1.939
    1QTZ  Si566 5665   9.219   0.780   1.930
    1QTZ  Si566 5666   9.808   0.785   2.484
    1QTZ  Si566 5667   9.541   0.773   1.503
    1QTZ  Si566 5668   9.498   0.913   2.505
    1QTZ  Si566 5669   9.243   0.850   1.605
    1QTZ  Si567 5670   9.797   0.780   2.133
    1QTZ  Si567 5671   9.400   0.536   2.008
    1QTZ  Si567 5672  10.027   0.536   2.526
    1QTZ  Si567 5673   9.719   0.522   1.601
    1QTZ  O5674 5674   9.532   1.003   1.106
    1QTZ  O5675 5675   9.828   0.928   0.559
    1QTZ  O5676 5676   9.399   1.386   0.672
    1QTZ  O5677 5677   9.948   1.366   1.037
    1QTZ  O5678 5678   9.628   1.411   0.025
    1QTZ  O5679 5679   9.710   1.301   1.113
    1QTZ  O5680 5680   9.438   1.350   0.202
    1QTZ  O5681 5681   9.994   1.256   0.661
    1QTZ  O5682 5682   9.524   1.080   0.822
    1QTZ  O5683 5683   9.756   1.002   0.279
    1QTZ  O5684 5684   9.470   1.251   1.056
    1QTZ  O5685 5685   9.185   1.299   0.177
    1QTZ  O5686 5686   9.772   1.181   0.525
    1QTZ  O5687 5687   9.384   1.138   0.580
    1QTZ  O5688 5688   9.873   1.115   1.023
    1QTZ  O5689 5689   9.615   1.159   0.114
    1QTZ  O5690 5690   9.883   1.098   0.034
    1QTZ  O5691 5691   9.298   1.059   0.992
    1QTZ  O5692 5692   9.594   1.001   0.531
    1QTZ  O5693 5693   9.271   1.364   0.433
    1QTZ  O5694 5694   9.776   1.283   0.817
    1QTZ  O5695 5695   9.355   1.222   0.003
    1QTZ  Si569 5696   6.704   1.163   0.084
    1QTZ  Si569 5697   9.461   1.099   0.985
    1QTZ  Si569 5698   9.742   1.030   0.456
    1QTZ  Si569 5699   9.304   1.284   0.582
    1QTZ  Si570 5700   9.819   1.268   0.987
    1QTZ  Si570 5701   9.512   1.284   0.064
    1QTZ  Si570 5702   9.556   1.344   1.166
    1QTZ  Si570 5703   9.288   1.398   0.265
    1QTZ  Si570 5704   9.832   1.283   0.650
    1QTZ  Si570 5705   9.485   1.029   0.660
    1QTZ  Si570 5706   9.997   1.022   1.087
    1QTZ  Si570 5707   9.730   1.035   0.105
    1QTZ  O5708 5708   9.520   1.049   2.413
    1QTZ  O5709 5709   9.768   0.932   2.064
    1QTZ  O5710 5710   9.320   1.385   2.009
    1QTZ  O5711 5711   9.924   1.407   2.475
    1QTZ  O5712 5712   9.666   1.363   1.566
    1QTZ  O5713 5713   9.656   1.346   2.556
    1QTZ  O5714 5714   9.407   1.307   1.597
    1QTZ  O5715 5715   9.944   1.251   2.060
    1QTZ  O5716 5716   9.434   1.114   2.157
    1QTZ  O5717 5717   9.764   1.034   1.772
    1QTZ  O5718 5718   9.452   1.305   2.380
    1QTZ  O5719 5719   9.173   1.251   1.483
    1QTZ  O5720 5720   9.710   1.176   2.031
    1QTZ  O5721 5721   9.307   1.136   1.917
    1QTZ  O5722 5722   9.910   1.161   2.565
    1QTZ  O5723 5723   9.591   1.116   1.551
    1QTZ  O5724 5724   9.830   1.052   1.476
    1QTZ  O5725 5725   9.267   1.100   2.388
    1QTZ  O5726 5726   9.545   1.006   1.929
    1QTZ  O5727 5727   9.181   1.327   1.767
    1QTZ  O5728 5728   9.782   1.251   2.311
    1QTZ  O5729 5729   9.516   1.302   1.332
    1QTZ  Si573 5730   9.983   1.094   1.423
    1QTZ  Si573 5731   9.417   1.148   2.325
    1QTZ  Si573 5732   9.708   1.034   1.939
    1QTZ  Si573 5733   9.220   1.277   1.930
    1QTZ  Si573 5734   9.808   1.283   2.485
    1QTZ  Si573 5735   9.542   1.270   1.503
    1QTZ  Si573 5736   9.497   1.411   2.506
    1QTZ  Si573 5737   9.244   1.347   1.605
    1QTZ  Si573 5738   9.796   1.279   2.134
    1QTZ  Si573 5739   9.402   1.034   2.008
    1QTZ  Si574 5740  10.027   1.034   2.526
    1QTZ  Si574 5741   9.720   1.019   1.602
    1QTZ  O5742 5742   9.533   1.500   1.106
    1QTZ  O5743 5743   9.829   1.425   0.559
    1QTZ  O5744 5744   9.398   1.884   0.672
    1QTZ  O5745 5745   9.949   1.863   1.038
    1QTZ  O5746 5746   9.628   1.909   0.025
    1QTZ  O5747 5747   9.710   1.799   1.114
    1QTZ  O5748 5748   9.438   1.848   0.201
    1QTZ  O5749 5749   9.996   1.755   0.662
    1QTZ  O5750 5750   9.524   1.578   0.822
    1QTZ  O5751 5751   9.757   1.501   0.279
    1QTZ  O5752 5752   9.470   1.749   1.057
    1QTZ  O5753 5753   9.185   1.797   0.177
    1QTZ  O5754 5754   9.775   1.679   0.525
    1QTZ  O5755 5755   9.384   1.635   0.580
    1QTZ  O5756 5756   9.873   1.612   1.024
    1QTZ  O5757 5757   9.615   1.657   0.114
    1QTZ  O5758 5758   9.883   1.596   0.034
    1QTZ  O5759 5759   9.299   1.556   0.992
    1QTZ  O5760 5760   9.595   1.500   0.531
    1QTZ  O5761 5761   9.270   1.862   0.432
    1QTZ  O5762 5762   9.776   1.781   0.817
    1QTZ  O5763 5763   9.355   1.720   0.003
    1QTZ  Si576 5764   6.704   1.660   0.084
    1QTZ  Si576 5765   9.462   1.597   0.985
    1QTZ  Si576 5766   9.743   1.528   0.456
    1QTZ  Si576 5767   9.304   1.781   0.582
    1QTZ  Si576 5768   9.820   1.766   0.988
    1QTZ  Si576 5769   9.512   1.781   0.063
    1QTZ  Si577 5770   9.556   1.842   1.167
    1QTZ  Si577 5771   9.288   1.895   0.265
    1QTZ  Si577 5772   9.833   1.781   0.650
    1QTZ  Si577 5773   9.485   1.528   0.660
    1QTZ  Si577 5774   9.997   1.519   1.087
    1QTZ  Si577 5775   9.731   1.533   0.105
    1QTZ  O5776 5776   9.519   1.547   2.413
    1QTZ  O5777 5777   9.764   1.430   2.065
    1QTZ  O5778 5778   9.322   1.883   2.009
    1QTZ  O5779 5779   9.924   1.905   2.475
    1QTZ  O5780 5780   9.666   1.861   1.567
    1QTZ  O5781 5781   9.656   1.843   2.555
    1QTZ  O5782 5782   9.406   1.805   1.598
    1QTZ  O5783 5783   9.945   1.745   2.058
    1QTZ  O5784 5784   9.433   1.611   2.157
    1QTZ  O5785 5785   9.763   1.531   1.773
    1QTZ  O5786 5786   9.452   1.803   2.379
    1QTZ  O5787 5787   9.172   1.749   1.484
    1QTZ  O5788 5788   9.710   1.674   2.031
    1QTZ  O5789 5789   9.304   1.634   1.918
    1QTZ  O5790 5790   9.911   1.659   2.564
    1QTZ  O5791 5791   9.590   1.614   1.552
    1QTZ  O5792 5792   9.829   1.550   1.476
    1QTZ  O5793 5793   9.266   1.598   2.389
    1QTZ  O5794 5794   9.543   1.505   1.928
    1QTZ  O5795 5795   9.181   1.826   1.768
    1QTZ  O5796 5796   9.783   1.748   2.310
    1QTZ  O5797 5797   9.515   1.800   1.332
    1QTZ  Si579 5798   9.983   1.592   1.423
    1QTZ  Si579 5799   9.416   1.645   2.325
    1QTZ  Si580 5800   9.706   1.532   1.939
    1QTZ  Si580 5801   9.219   1.776   1.930
    1QTZ  Si580 5802   9.809   1.781   2.484
    1QTZ  Si580 5803   9.541   1.768   1.503
    1QTZ  Si580 5804   9.498   1.908   2.505
    1QTZ  Si580 5805   9.243   1.845   1.605
    1QTZ  Si580 5806   9.797   1.776   2.133
    1QTZ  Si580 5807   9.400   1.532   2.008
    1QTZ  Si580 5808  10.027   1.531   2.526
    1QTZ  Si580 5809   9.719   1.517   1.602
    1QTZ  O5810 5810   9.532   1.998   1.106
    1QTZ  O5811 5811   9.829   1.923   0.559
    1QTZ  O5812 5812   9.400   2.382   0.671
    1QTZ  O5813 5813   9.949   2.361   1.037
    1QTZ  O5814 5814   9.628   2.406   0.024
    1QTZ  O5815 5815   9.710   2.297   1.113
    1QTZ  O5816 5816   9.439   2.346   0.201
    1QTZ  O5817 5817   9.995   2.251   0.660
    1QTZ  O5818 5818   9.524   2.075   0.822
    1QTZ  O5819 5819   9.756   1.998   0.279
    1QTZ  O5820 5820   9.470   2.247   1.056
    1QTZ  O5821 5821   9.185   2.295   0.176
    1QTZ  O5822 5822   9.772   2.177   0.525
    1QTZ  O5823 5823   9.385   2.133   0.580
    1QTZ  O5824 5824   9.874   2.110   1.023
    1QTZ  O5825 5825   9.615   2.154   0.114
    1QTZ  O5826 5826   9.883   2.093   0.034
    1QTZ  O5827 5827   9.298   2.054   0.992
    1QTZ  O5828 5828   9.594   1.995   0.531
    1QTZ  O5829 5829   9.271   2.359   0.432
    1QTZ  O5830 5830   9.776   2.278   0.817
    1QTZ  O5831 5831   9.355   2.217   0.003
    1QTZ  Si583 5832   6.704   2.158   0.084
    1QTZ  Si583 5833   9.461   2.094   0.985
    1QTZ  Si583 5834   9.742   2.025   0.456
    1QTZ  Si583 5835   9.305   2.280   0.582
    1QTZ  Si583 5836   9.820   2.264   0.987
    1QTZ  Si583 5837   9.512   2.279   0.063
    1QTZ  Si583 5838   9.557   2.339   1.166
    1QTZ  Si583 5839   9.288   2.393   0.264
    1QTZ  Si584 5840   9.832   2.279   0.649
    1QTZ  Si584 5841   9.485   2.025   0.660
    1QTZ  Si584 5842   9.998   2.017   1.086
    1QTZ  Si584 5843   9.730   2.030   0.105
    1QTZ  O5844 5844   9.520   2.045   2.413
    1QTZ  O5845 5845   9.768   1.928   2.064
    1QTZ  O5846 5846   9.321   2.380   2.009
    1QTZ  O5847 5847   9.924   2.402   2.475
    1QTZ  O5848 5848   9.667   2.359   1.566
    1QTZ  O5849 5849   9.656   2.342   2.555
    1QTZ  O5850 5850   9.407   2.303   1.597
    1QTZ  O5851 5851   9.945   2.246   2.059
    1QTZ  O5852 5852   9.435   2.109   2.157
    1QTZ  O5853 5853   9.764   2.029   1.772
    1QTZ  O5854 5854   9.453   2.300   2.379
    1QTZ  O5855 5855   9.173   2.246   1.483
    1QTZ  O5856 5856   9.711   2.172   2.031
    1QTZ  O5857 5857   9.307   2.131   1.917
    1QTZ  O5858 5858   9.911   2.157   2.564
    1QTZ  O5859 5859   9.591   2.112   1.551
    1QTZ  O5860 5860   9.830   2.047   1.476
    1QTZ  O5861 5861   9.267   2.096   2.388
    1QTZ  O5862 5862   9.545   2.002   1.928
    1QTZ  O5863 5863   9.182   2.323   1.767
    1QTZ  O5864 5864   9.782   2.247   2.311
    1QTZ  O5865 5865   9.516   2.298   1.332
    1QTZ  Si586 5866   9.983   2.090   1.423
    1QTZ  Si586 5867   9.417   2.143   2.325
    1QTZ  Si586 5868   9.708   2.029   1.939
    1QTZ  Si586 5869   9.220   2.272   1.929
    1QTZ  Si587 5870   9.808   2.279   2.485
    1QTZ  Si587 5871   9.543   2.266   1.502
    1QTZ  Si587 5872   9.498   2.406   2.505
    1QTZ  Si587 5873   9.244   2.343   1.604
    1QTZ  Si587 5874   9.797   2.274   2.133
    1QTZ  Si587 5875   9.402   2.029   2.008
    1QTZ  Si587 5876  10.027   2.029   2.526
    1QTZ  Si587 5877   9.720   2.015   1.602
    1QTZ  O5878 5878   9.533   2.496   1.105
    1QTZ  O5879 5879   9.829   2.421   0.558
    1QTZ  O5880 5880   9.398   2.879   0.672
    1QTZ  O5881 5881   9.949   2.859   1.037
    1QTZ  O5882 5882   9.628   2.904   0.024
    1QTZ  O5883 5883   9.710   2.795   1.113
    1QTZ  O5884 5884   9.438   2.843   0.201
    1QTZ  O5885 5885   9.996   2.750   0.661
    1QTZ  O5886 5886   9.524   2.574   0.821
    1QTZ  O5887 5887   9.757   2.496   0.278
    1QTZ  O5888 5888   9.470   2.744   1.056
    1QTZ  O5889 5889   9.185   2.792   0.176
    1QTZ  O5890 5890   9.775   2.675   0.524
    1QTZ  O5891 5891   9.384   2.631   0.580
    1QTZ  O5892 5892   9.873   2.608   1.023
    1QTZ  O5893 5893   9.615   2.652   0.114
    1QTZ  O5894 5894   9.883   2.591   0.033
    1QTZ  O5895 5895   9.299   2.552   0.991
    1QTZ  O5896 5896   9.595   2.495   0.530
    1QTZ  O5897 5897   9.271   2.857   0.432
    1QTZ  O5898 5898   9.777   2.776   0.816
    1QTZ  O5899 5899   9.355   2.715   0.002
    1QTZ  Si590 5900   6.705   2.656   0.083
    1QTZ  Si590 5901   9.462   2.592   0.984
    1QTZ  Si590 5902   9.743   2.523   0.455
    1QTZ  Si590 5903   9.304   2.777   0.581
    1QTZ  Si590 5904   9.820   2.762   0.987
    1QTZ  Si590 5905   9.512   2.777   0.063
    1QTZ  Si590 5906   9.556   2.837   1.166
    1QTZ  Si590 5907   9.288   2.891   0.264
    1QTZ  Si590 5908   9.833   2.777   0.650
    1QTZ  Si590 5909   9.486   2.523   0.659
    1QTZ  Si591 5910   9.997   2.515   1.086
    1QTZ  Si591 5911   9.731   2.528   0.104
    1QTZ  O5912 5912   9.520   2.543   2.413
    1QTZ  O5913 5913   9.765   2.426   2.064
    1QTZ  O5914 5914   9.322   2.878   2.009
    1QTZ  O5915 5915   9.924   2.900   2.475
    1QTZ  O5916 5916   9.666   2.856   1.566
    1QTZ  O5917 5917   9.656   2.839   2.555
    1QTZ  O5918 5918   9.407   2.800   1.597
    1QTZ  O5919 5919   9.945   2.742   2.058
    1QTZ  O5920 5920   9.434   2.607   2.157
    1QTZ  O5921 5921   9.763   2.527   1.772
    1QTZ  O5922 5922   9.453   2.798   2.379
    1QTZ  O5923 5923   9.173   2.744   1.483
    1QTZ  O5924 5924   9.710   2.670   2.030
    1QTZ  O5925 5925   9.306   2.629   1.917
    1QTZ  O5926 5926   9.911   2.655   2.564
    1QTZ  O5927 5927   9.591   2.610   1.551
    1QTZ  O5928 5928   9.830   2.546   1.475
    1QTZ  O5929 5929   9.267   2.594   2.388
    1QTZ  O5930 5930   9.544   2.500   1.927
    1QTZ  O5931 5931   9.181   2.821   1.767
    1QTZ  O5932 5932   9.783   2.744   2.310
    1QTZ  O5933 5933   9.516   2.795   1.332
    1QTZ  Si593 5934   9.984   2.588   1.423
    1QTZ  Si593 5935   9.417   2.641   2.324
    1QTZ  Si593 5936   9.707   2.527   1.939
    1QTZ  Si593 5937   9.220   2.771   1.930
    1QTZ  Si593 5938   9.809   2.777   2.484
    1QTZ  Si593 5939   9.542   2.764   1.502
    1QTZ  Si594 5940   9.498   2.904   2.505
    1QTZ  Si594 5941   9.244   2.840   1.604
    1QTZ  Si594 5942   9.797   2.772   2.132
    1QTZ  Si594 5943   9.401   2.527   2.007
    1QTZ  Si594 5944  10.027   2.527   2.525
    1QTZ  Si594 5945   9.720   2.513   1.601
    1QTZ  O5946 5946   9.533   2.993   1.106
    1QTZ  O5947 5947   9.829   2.919   0.558
    1QTZ  O5948 5948   9.399   3.377   0.671
    1QTZ  O5949 5949   9.949   3.357   1.037
    1QTZ  O5950 5950   9.628   3.402   0.024
    1QTZ  O5951 5951   9.710   3.292   1.113
    1QTZ  O5952 5952   9.438   3.341   0.200
    1QTZ  O5953 5953   9.995   3.247   0.660
    1QTZ  O5954 5954   9.524   3.070   0.822
    1QTZ  O5955 5955   9.756   2.993   0.278
    1QTZ  O5956 5956   9.470   3.242   1.056
    1QTZ  O5957 5957   9.185   3.290   0.176
    1QTZ  O5958 5958   9.772   3.172   0.525
    1QTZ  O5959 5959   9.385   3.128   0.579
    1QTZ  O5960 5960   9.874   3.106   1.022
    1QTZ  O5961 5961   9.615   3.150   0.114
    1QTZ  O5962 5962   9.883   3.089   0.033
    1QTZ  O5963 5963   9.299   3.050   0.992
    1QTZ  O5964 5964   9.594   2.991   0.531
    1QTZ  O5965 5965   9.271   3.355   0.432
    1QTZ  O5966 5966   9.776   3.274   0.816
    1QTZ  O5967 5967   9.355   3.213   0.002
    1QTZ  Si596 5968   6.704   3.154   0.083
    1QTZ  Si596 5969   9.462   3.090   0.984
    1QTZ  Si597 5970   9.742   3.021   0.456
    1QTZ  Si597 5971   9.305   3.275   0.581
    1QTZ  Si597 5972   9.820   3.259   0.987
    1QTZ  Si597 5973   9.512   3.274   0.063
    1QTZ  Si597 5974   9.556   3.335   1.166
    1QTZ  Si597 5975   9.288   3.388   0.264
    1QTZ  Si597 5976   9.832   3.274   0.649
    1QTZ  Si597 5977   9.485   3.020   0.659
    1QTZ  Si597 5978   9.998   3.013   1.086
    1QTZ  Si597 5979   9.730   3.026   0.104
    1QTZ  O5980 5980   9.520   3.041   2.412
    1QTZ  O5981 5981   9.766   2.923   2.063
    1QTZ  O5982 5982   9.321   3.376   2.009
    1QTZ  O5983 5983   9.924   3.398   2.475
    1QTZ  O5984 5984   9.666   3.354   1.566
    1QTZ  O5985 5985   9.656   3.337   2.555
    1QTZ  O5986 5986   9.407   3.298   1.597
    1QTZ  O5987 5987   9.945   3.240   2.058
    1QTZ  O5988 5988   9.434   3.105   2.156
    1QTZ  O5989 5989   9.763   3.025   1.772
    1QTZ  O5990 5990   9.453   3.296   2.379
    1QTZ  O5991 5991   9.173   3.242   1.483
    1QTZ  O5992 5992   9.711   3.167   2.030
    1QTZ  O5993 5993   9.306   3.127   1.917
    1QTZ  O5994 5994   9.911   3.152   2.564
    1QTZ  O5995 5995   9.591   3.107   1.551
    1QTZ  O5996 5996   9.830   3.043   1.475
    1QTZ  O5997 5997   9.267   3.091   2.388
    1QTZ  O5998 5998   9.544   2.998   1.927
    1QTZ  O5999 5999   9.181   3.319   1.767
    1QTZ  O6000 6000   9.783   3.242   2.310
    1QTZ  O6001 6001   9.516   3.293   1.332
    1QTZ  Si600 6002   9.984   3.085   1.422
    1QTZ  Si600 6003   9.417   3.139   2.324
    1QTZ  Si600 6004   9.707   3.025   1.938
    1QTZ  Si600 6005   9.220   3.268   1.930
    1QTZ  Si600 6006   9.808   3.274   2.484
    1QTZ  Si600 6007   9.542   3.262   1.502
    1QTZ  Si600 6008   9.498   3.402   2.505
    1QTZ  Si600 6009   9.244   3.338   1.604
    1QTZ  Si601 6010   9.797   3.269   2.133
    1QTZ  Si601 6011   9.401   3.025   2.007
    1QTZ  Si601 6012  10.027   3.025   2.526
    1QTZ  Si601 6013   9.720   3.010   1.601
    1QTZ  O6014 6014   6.750   0.061   0.209
    1QTZ  O6015 6015   6.733   0.006   1.533
    1QTZ  O6016 6016  10.024   0.058   1.257
    1QTZ  O6017 6017   6.750   0.559   0.210
    1QTZ  O6018 6018   6.732   0.504   1.533
    1QTZ  O6019 6019  10.024   0.555   1.257
    1QTZ  O6020 6020   6.749   1.057   0.210
    1QTZ  O6021 6021   6.733   1.001   1.533
    1QTZ  O6022 6022  10.024   1.053   1.257
    1QTZ  O6023 6023   6.750   1.555   0.210
    1QTZ  O6024 6024   6.732   1.499   1.533
    1QTZ  O6025 6025  10.023   1.550   1.257
    1QTZ  O6026 6026   6.750   2.052   0.210
    1QTZ  O6027 6027   6.733   1.997   1.533
    1QTZ  O6028 6028   6.687   2.049   1.257
    1QTZ  O6029 6029   6.750   2.550   0.209
    1QTZ  O6030 6030   6.733   2.495   1.533
    1QTZ  O6031 6031   6.687   2.546   1.257
    1QTZ  O6032 6032   6.750   3.048   0.209
    1QTZ  O6033 6033   6.733   2.993   1.532
    1QTZ  O6034 6034   6.687   3.044   1.256
    1QTZ  O6035 6035  10.019   0.304   0.176
    1QTZ  O6036 6036  10.007   0.255   1.483
    1QTZ  O6037 6037  10.019   0.802   0.177
    1QTZ  O6038 6038  10.007   0.753   1.483
    1QTZ  O6039 6039  10.019   1.299   0.177
    1QTZ  O6040 6040  10.006   1.251   1.484
    1QTZ  O6041 6041  10.020   1.797   0.177
    1QTZ  O6042 6042  10.007   1.749   1.483
    1QTZ  O6043 6043  10.019   2.295   0.176
    1QTZ  O6044 6044  10.006   2.246   1.483
    1QTZ  O6045 6045  10.020   2.792   0.176
    1QTZ  O6046 6046  10.007   2.744   1.483
    1QTZ  O6047 6047  10.019   3.290   0.176
    1QTZ  O6048 6048  10.007   3.242   1.483
    1QTZ  O6049 6049  10.366   0.007   1.106
    1QTZ  O6050 6050  10.921   0.061   0.210
    1QTZ  O6051 6051  10.663   3.416   0.558
    1QTZ  O6052 6052  10.233   0.391   0.672
    1QTZ  O6053 6053  10.783   0.370   1.038
    1QTZ  O6054 6054  10.462   0.416   0.025
    1QTZ  O6055 6055  10.544   0.306   1.114
    1QTZ  O6056 6056  10.272   0.355   0.201
    1QTZ  O6057 6057  10.829   0.261   0.661
    1QTZ  O6058 6058  10.358   0.084   0.822
    1QTZ  O6059 6059  10.590   0.007   0.279
    1QTZ  O6060 6060  10.304   0.256   1.056
    1QTZ  O6061 6061  10.607   0.186   0.525
    1QTZ  O6062 6062  10.219   0.142   0.580
    1QTZ  O6063 6063  10.708   0.119   1.023
    1QTZ  O6064 6064  10.449   0.163   0.114
    1QTZ  O6065 6065  10.717   0.102   0.034
    1QTZ  O6066 6066  10.133   0.063   0.992
    1QTZ  O6067 6067  10.428   0.005   0.531
    1QTZ  O6068 6068  10.105   0.368   0.432
    1QTZ  O6069 6069  10.610   0.287   0.817
    1QTZ  O6070 6070  10.189   0.227   0.002
    1QTZ  Si607 6071  10.875   0.167   0.084
    1QTZ  Si607 6072  10.296   0.103   0.985
    1QTZ  Si607 6073  10.576   0.034   0.456
    1QTZ  Si607 6074  10.138   0.288   0.581
    1QTZ  Si607 6075  10.654   0.273   0.988
    1QTZ  Si607 6076  10.346   0.288   0.063
    1QTZ  Si607 6077  10.390   0.348   1.166
    1QTZ  Si607 6078  10.122   0.402   0.264
    1QTZ  Si607 6079  10.666   0.288   0.650
    1QTZ  Si608 6080  10.319   0.034   0.659
    1QTZ  Si608 6081  10.832   0.026   1.086
    1QTZ  Si608 6082  10.565   0.040   0.105
    1QTZ  O6083 6083  10.354   0.054   2.412
    1QTZ  O6084 6084  10.904   0.006   1.533
    1QTZ  O6085 6085  10.599   3.421   2.064
    1QTZ  O6086 6086  10.155   0.390   2.009
    1QTZ  O6087 6087  10.758   0.411   2.475
    1QTZ  O6088 6088  10.500   0.368   1.566
    1QTZ  O6089 6089  10.490   0.350   2.555
    1QTZ  O6090 6090  10.240   0.312   1.597
    1QTZ  O6091 6091  10.779   0.252   2.058
    1QTZ  O6092 6092  10.268   0.119   2.156
    1QTZ  O6093 6093  10.858   0.057   1.257
    1QTZ  O6094 6094  10.597   0.038   1.772
    1QTZ  O6095 6095  10.287   0.309   2.379
    1QTZ  O6096 6096  10.545   0.181   2.031
    1QTZ  O6097 6097  10.139   0.141   1.917
    1QTZ  O6098 6098  10.745   0.165   2.564
    1QTZ  O6099 6099  10.425   0.121   1.551
    1QTZ  O6100 6100  10.664   0.057   1.476
    1QTZ  O6101 6101  10.100   0.105   2.388
    1QTZ  O6102 6102  10.378   0.012   1.927
    1QTZ  O6103 6103  13.352   0.333   1.767
    1QTZ  O6104 6104  10.617   0.255   2.310
    1QTZ  O6105 6105  10.350   0.307   1.332
    1QTZ  Si610 6106  10.818   0.099   1.423
    1QTZ  Si610 6107  10.251   0.152   2.324
    1QTZ  Si610 6108  10.541   0.038   1.939
    1QTZ  Si610 6109  10.054   0.282   1.930
    1QTZ  Si611 6110  10.643   0.287   2.485
    1QTZ  Si611 6111  10.376   0.275   1.503
    1QTZ  Si611 6112  10.332   0.415   2.505
    1QTZ  Si611 6113  10.077   0.352   1.604
    1QTZ  Si611 6114  10.632   0.282   2.133
    1QTZ  Si611 6115  10.235   0.039   2.007
    1QTZ  Si611 6116  10.861   0.038   2.526
    1QTZ  Si611 6117  10.554   0.024   1.601
    1QTZ  O6118 6118  10.184   0.474   2.586
    1QTZ  O6119 6119  10.184   0.972   2.587
    1QTZ  O6120 6120  10.184   1.470   2.587
    1QTZ  O6121 6121  10.184   1.968   2.587
    1QTZ  O6122 6122  10.184   2.466   2.586
    1QTZ  O6123 6123  10.184   2.963   2.586
    1QTZ  O6124 6124  10.184   3.461   2.586
    1QTZ  O6125 6125  11.018   0.474   2.587
    1QTZ  O6126 6126  11.018   0.972   2.587
    1QTZ  O6127 6127  11.018   1.470   2.587
    1QTZ  O6128 6128  11.018   1.968   2.587
    1QTZ  O6129 6129  11.018   2.466   2.587
    1QTZ  O6130 6130  11.018   2.963   2.586
    1QTZ  O6131 6131  11.018   3.461   2.587
    1QTZ  O6132 6132  11.852   0.474   2.587
    1QTZ  O6133 6133  11.852   0.972   2.587
    1QTZ  O6134 6134  11.852   1.470   2.587
    1QTZ  O6135 6135  11.852   1.968   2.587
    1QTZ  O6136 6136  11.853   2.466   2.587
    1QTZ  O6137 6137  11.852   2.963   2.587
    1QTZ  O6138 6138  11.852   3.461   2.587
    1QTZ  O6139 6139  12.686   0.475   2.587
    1QTZ  O6140 6140  12.687   0.972   2.587
    1QTZ  O6141 6141  12.686   1.470   2.587
    1QTZ  O6142 6142  12.687   1.968   2.587
    1QTZ  O6143 6143  12.687   2.466   2.587
    1QTZ  O6144 6144  12.687   2.963   2.586
    1QTZ  O6145 6145  12.687   3.461   2.586
    1QTZ  O6146 6146  10.367   0.505   1.106
    1QTZ  O6147 6147  10.920   0.559   0.210
    1QTZ  O6148 6148  10.663   0.430   0.558
    1QTZ  O6149 6149  10.233   0.889   0.672
    1QTZ  O6150 6150  10.783   0.868   1.037
    1QTZ  O6151 6151  10.462   0.913   0.025
    1QTZ  O6152 6152  10.544   0.804   1.113
    1QTZ  O6153 6153  10.272   0.852   0.201
    1QTZ  O6154 6154  10.829   0.758   0.661
    1QTZ  O6155 6155  10.358   0.582   0.822
    1QTZ  O6156 6156  10.590   0.505   0.278
    1QTZ  O6157 6157  10.304   0.753   1.056
    1QTZ  O6158 6158  10.607   0.683   0.525
    1QTZ  O6159 6159  10.218   0.640   0.580
    1QTZ  O6160 6160  10.707   0.617   1.023
    1QTZ  O6161 6161  10.449   0.661   0.114
    1QTZ  O6162 6162  10.717   0.600   0.034
    1QTZ  O6163 6163  10.133   0.561   0.992
    1QTZ  O6164 6164  10.428   0.503   0.531
    1QTZ  O6165 6165  10.105   0.866   0.433
    1QTZ  O6166 6166  10.610   0.784   0.817
    1QTZ  O6167 6167  10.189   0.725   0.003
    1QTZ  Si616 6168  10.875   0.665   0.084
    1QTZ  Si616 6169  10.296   0.601   0.985
    1QTZ  Si617 6170  10.576   0.532   0.456
    1QTZ  Si617 6171  10.138   0.786   0.582
    1QTZ  Si617 6172  10.654   0.770   0.987
    1QTZ  Si617 6173  10.346   0.786   0.063
    1QTZ  Si617 6174  10.390   0.846   1.166
    1QTZ  Si617 6175  10.122   0.900   0.265
    1QTZ  Si617 6176  10.666   0.785   0.650
    1QTZ  Si617 6177  10.319   0.532   0.659
    1QTZ  Si617 6178  10.831   0.524   1.087
    1QTZ  Si617 6179  10.565   0.537   0.105
    1QTZ  O6180 6180  10.354   0.552   2.413
    1QTZ  O6181 6181  10.904   0.504   1.533
    1QTZ  O6182 6182  10.602   0.434   2.064
    1QTZ  O6183 6183  10.154   0.887   2.009
    1QTZ  O6184 6184  10.758   0.909   2.476
    1QTZ  O6185 6185  10.500   0.866   1.566
    1QTZ  O6186 6186  10.490   0.848   2.556
    1QTZ  O6187 6187  10.241   0.809   1.597
    1QTZ  O6188 6188  10.779   0.753   2.060
    1QTZ  O6189 6189  10.269   0.616   2.157
    1QTZ  O6190 6190  10.858   0.555   1.258
    1QTZ  O6191 6191  10.598   0.536   1.772
    1QTZ  O6192 6192  10.286   0.807   2.379
    1QTZ  O6193 6193  10.545   0.678   2.031
    1QTZ  O6194 6194  10.142   0.638   1.917
    1QTZ  O6195 6195  10.745   0.663   2.565
    1QTZ  O6196 6196  10.425   0.619   1.552
    1QTZ  O6197 6197  10.664   0.554   1.476
    1QTZ  O6198 6198  10.101   0.602   2.388
    1QTZ  O6199 6199  10.379   0.508   1.929
    1QTZ  O6200 6200  13.352   0.829   1.767
    1QTZ  O6201 6201  10.616   0.753   2.311
    1QTZ  O6202 6202  10.350   0.804   1.332
    1QTZ  Si620 6203  10.817   0.597   1.424
    1QTZ  Si620 6204  10.251   0.650   2.325
    1QTZ  Si620 6205  10.542   0.536   1.940
    1QTZ  Si620 6206  10.054   0.779   1.929
    1QTZ  Si620 6207  10.642   0.785   2.485
    1QTZ  Si620 6208  10.376   0.773   1.503
    1QTZ  Si620 6209  10.332   0.913   2.506
    1QTZ  Si621 6210  10.078   0.849   1.604
    1QTZ  Si621 6211  10.630   0.781   2.134
    1QTZ  Si621 6212  10.236   0.536   2.008
    1QTZ  Si621 6213  10.861   0.536   2.526
    1QTZ  Si621 6214  10.554   0.521   1.602
    1QTZ  O6215 6215  10.367   1.002   1.106
    1QTZ  O6216 6216  10.921   1.057   0.210
    1QTZ  O6217 6217  10.663   0.927   0.559
    1QTZ  O6218 6218  10.232   1.386   0.672
    1QTZ  O6219 6219  10.783   1.365   1.038
    1QTZ  O6220 6220  10.462   1.411   0.025
    1QTZ  O6221 6221  10.544   1.302   1.114
    1QTZ  O6222 6222  10.272   1.350   0.201
    1QTZ  O6223 6223  10.830   1.257   0.662
    1QTZ  O6224 6224  10.358   1.080   0.822
    1QTZ  O6225 6225  10.591   1.003   0.279
    1QTZ  O6226 6226  10.304   1.251   1.057
    1QTZ  O6227 6227  10.609   1.181   0.525
    1QTZ  O6228 6228  10.219   1.138   0.580
    1QTZ  O6229 6229  10.707   1.114   1.024
    1QTZ  O6230 6230  10.449   1.159   0.114
    1QTZ  O6231 6231  10.717   1.098   0.034
    1QTZ  O6232 6232  10.133   1.059   0.992
    1QTZ  O6233 6233  10.429   1.001   0.531
    1QTZ  O6234 6234  10.105   1.364   0.432
    1QTZ  O6235 6235  10.610   1.282   0.817
    1QTZ  O6236 6236  10.189   1.222   0.003
    1QTZ  Si623 6237  10.875   1.163   0.084
    1QTZ  Si623 6238  10.296   1.099   0.985
    1QTZ  Si623 6239  10.577   1.030   0.456
    1QTZ  Si624 6240  10.138   1.284   0.582
    1QTZ  Si624 6241  10.654   1.268   0.988
    1QTZ  Si624 6242  10.346   1.283   0.063
    1QTZ  Si624 6243  10.390   1.344   1.167
    1QTZ  Si624 6244  10.122   1.397   0.265
    1QTZ  Si624 6245  10.667   1.283   0.651
    1QTZ  Si624 6246  10.319   1.030   0.660
    1QTZ  Si624 6247  10.831   1.021   1.087
    1QTZ  Si624 6248  10.565   1.035   0.105
    1QTZ  O6249 6249  10.353   1.049   2.413
    1QTZ  O6250 6250  10.903   1.001   1.534
    1QTZ  O6251 6251  10.598   0.932   2.065
    1QTZ  O6252 6252  10.155   1.385   2.009
    1QTZ  O6253 6253  10.758   1.407   2.475
    1QTZ  O6254 6254  10.500   1.363   1.567
    1QTZ  O6255 6255  10.490   1.345   2.555
    1QTZ  O6256 6256  10.240   1.307   1.598
    1QTZ  O6257 6257  10.779   1.247   2.058
    1QTZ  O6258 6258  10.268   1.114   2.157
    1QTZ  O6259 6259  10.858   1.052   1.258
    1QTZ  O6260 6260  10.597   1.033   1.773
    1QTZ  O6261 6261  10.287   1.305   2.379
    1QTZ  O6262 6262  10.544   1.176   2.031
    1QTZ  O6263 6263  10.139   1.136   1.918
    1QTZ  O6264 6264  10.745   1.161   2.564
    1QTZ  O6265 6265  10.425   1.116   1.552
    1QTZ  O6266 6266  10.664   1.053   1.476
    1QTZ  O6267 6267  10.100   1.100   2.388
    1QTZ  O6268 6268  10.377   1.008   1.928
    1QTZ  O6269 6269  13.352   1.328   1.768
    1QTZ  O6270 6270  10.617   1.250   2.310
    1QTZ  O6271 6271  10.349   1.302   1.333
    1QTZ  Si627 6272  10.817   1.094   1.423
    1QTZ  Si627 6273  10.251   1.148   2.325
    1QTZ  Si627 6274  10.540   1.034   1.939
    1QTZ  Si627 6275  10.053   1.278   1.930
    1QTZ  Si627 6276  10.643   1.283   2.485
    1QTZ  Si627 6277  10.376   1.270   1.503
    1QTZ  Si627 6278  10.332   1.410   2.505
    1QTZ  Si627 6279  10.077   1.347   1.605
    1QTZ  Si628 6280  10.632   1.278   2.133
    1QTZ  Si628 6281  10.234   1.034   2.008
    1QTZ  Si628 6282  10.861   1.033   2.526
    1QTZ  Si628 6283  10.554   1.019   1.602
    1QTZ  O6284 6284  10.366   1.500   1.106
    1QTZ  O6285 6285  10.921   1.555   0.211
    1QTZ  O6286 6286  10.663   1.425   0.559
    1QTZ  O6287 6287  10.234   1.884   0.672
    1QTZ  O6288 6288  10.783   1.863   1.037
    1QTZ  O6289 6289  10.463   1.909   0.025
    1QTZ  O6290 6290  10.544   1.799   1.113
    1QTZ  O6291 6291  10.273   1.848   0.201
    1QTZ  O6292 6292  10.829   1.753   0.661
    1QTZ  O6293 6293  10.358   1.577   0.822
    1QTZ  O6294 6294  10.590   1.500   0.279
    1QTZ  O6295 6295  10.304   1.749   1.056
    1QTZ  O6296 6296  10.606   1.679   0.525
    1QTZ  O6297 6297  10.219   1.635   0.580
    1QTZ  O6298 6298  10.708   1.612   1.023
    1QTZ  O6299 6299  10.449   1.656   0.114
    1QTZ  O6300 6300  10.717   1.595   0.034
    1QTZ  O6301 6301  10.133   1.556   0.992
    1QTZ  O6302 6302  10.428   1.498   0.531
    1QTZ  O6303 6303  10.105   1.862   0.433
    1QTZ  O6304 6304  10.610   1.780   0.817
    1QTZ  O6305 6305  10.189   1.720   0.003
    1QTZ  Si630 6306  10.875   1.660   0.084
    1QTZ  Si630 6307  10.296   1.596   0.985
    1QTZ  Si630 6308  10.576   1.527   0.456
    1QTZ  Si630 6309  10.139   1.782   0.582
    1QTZ  Si631 6310  10.654   1.766   0.987
    1QTZ  Si631 6311  10.346   1.781   0.063
    1QTZ  Si631 6312  10.391   1.841   1.166
    1QTZ  Si631 6313  10.123   1.895   0.265
    1QTZ  Si631 6314  10.666   1.780   0.650
    1QTZ  Si631 6315  10.319   1.527   0.660
    1QTZ  Si631 6316  10.832   1.519   1.087
    1QTZ  Si631 6317  10.565   1.532   0.105
    1QTZ  O6318 6318  10.354   1.547   2.413
    1QTZ  O6319 6319  10.904   1.499   1.533
    1QTZ  O6320 6320  10.602   1.430   2.064
    1QTZ  O6321 6321  10.155   1.883   2.009
    1QTZ  O6322 6322  10.758   1.904   2.475
    1QTZ  O6323 6323  10.501   1.861   1.566
    1QTZ  O6324 6324  10.490   1.844   2.556
    1QTZ  O6325 6325  10.241   1.805   1.597
    1QTZ  O6326 6326  10.779   1.749   2.060
    1QTZ  O6327 6327  10.269   1.612   2.157
    1QTZ  O6328 6328  10.858   1.551   1.257
    1QTZ  O6329 6329  10.598   1.531   1.772
    1QTZ  O6330 6330  10.286   1.802   2.379
    1QTZ  O6331 6331  10.545   1.674   2.031
    1QTZ  O6332 6332  10.142   1.634   1.917
    1QTZ  O6333 6333  10.744   1.659   2.565
    1QTZ  O6334 6334  10.425   1.614   1.551
    1QTZ  O6335 6335  10.664   1.549   1.476
    1QTZ  O6336 6336  10.101   1.598   2.388
    1QTZ  O6337 6337  10.379   1.504   1.929
    1QTZ  O6338 6338  13.353   1.825   1.767
    1QTZ  O6339 6339  10.616   1.749   2.311
    1QTZ  O6340 6340  10.350   1.800   1.332
    1QTZ  Si634 6341  10.817   1.592   1.423
    1QTZ  Si634 6342  10.251   1.645   2.325
    1QTZ  Si634 6343  10.542   1.531   1.939
    1QTZ  Si634 6344  10.054   1.774   1.929
    1QTZ  Si634 6345  10.642   1.781   2.485
    1QTZ  Si634 6346  10.377   1.768   1.503
    1QTZ  Si634 6347  10.332   1.908   2.506
    1QTZ  Si634 6348  10.078   1.845   1.604
    1QTZ  Si634 6349  10.630   1.776   2.133
    1QTZ  Si635 6350  10.236   1.531   2.008
    1QTZ  Si635 6351  10.861   1.531   2.526
    1QTZ  Si635 6352  10.554   1.517   1.602
    1QTZ  O6353 6353  10.367   1.998   1.106
    1QTZ  O6354 6354  10.921   2.052   0.210
    1QTZ  O6355 6355  10.663   1.923   0.558
    1QTZ  O6356 6356  10.232   2.382   0.672
    1QTZ  O6357 6357  10.783   2.361   1.038
    1QTZ  O6358 6358  10.462   2.406   0.025
    1QTZ  O6359 6359  10.544   2.297   1.113
    1QTZ  O6360 6360  10.273   2.345   0.201
    1QTZ  O6361 6361  10.830   2.253   0.662
    1QTZ  O6362 6362  10.359   2.076   0.822
    1QTZ  O6363 6363  10.591   1.998   0.279
    1QTZ  O6364 6364  10.304   2.246   1.056
    1QTZ  O6365 6365  10.609   2.177   0.525
    1QTZ  O6366 6366  10.219   2.133   0.580
    1QTZ  O6367 6367  10.707   2.110   1.023
    1QTZ  O6368 6368  10.449   2.154   0.114
    1QTZ  O6369 6369  10.717   2.093   0.034
    1QTZ  O6370 6370  10.133   2.054   0.992
    1QTZ  O6371 6371  10.429   1.998   0.530
    1QTZ  O6372 6372  10.105   2.359   0.432
    1QTZ  O6373 6373  10.611   2.278   0.817
    1QTZ  O6374 6374  10.189   2.217   0.003
    1QTZ  Si637 6375  10.876   2.158   0.084
    1QTZ  Si637 6376  10.296   2.094   0.985
    1QTZ  Si637 6377  10.577   2.025   0.456
    1QTZ  Si637 6378  10.138   2.279   0.581
    1QTZ  Si637 6379  10.654   2.264   0.987
    1QTZ  Si638 6380  10.346   2.279   0.063
    1QTZ  Si638 6381  10.390   2.339   1.166
    1QTZ  Si638 6382  10.122   2.393   0.264
    1QTZ  Si638 6383  10.668   2.279   0.650
    1QTZ  Si638 6384  10.320   2.026   0.659
    1QTZ  Si638 6385  10.831   2.017   1.086
    1QTZ  Si638 6386  10.565   2.030   0.105
    1QTZ  O6387 6387  10.354   2.045   2.413
    1QTZ  O6388 6388  10.903   1.997   1.533
    1QTZ  O6389 6389  10.598   1.928   2.065
    1QTZ  O6390 6390  10.156   2.381   2.009
    1QTZ  O6391 6391  10.758   2.402   2.475
    1QTZ  O6392 6392  10.500   2.359   1.566
    1QTZ  O6393 6393  10.490   2.341   2.555
    1QTZ  O6394 6394  10.240   2.302   1.597
    1QTZ  O6395 6395  10.779   2.244   2.058
    1QTZ  O6396 6396  10.268   2.109   2.157
    1QTZ  O6397 6397  10.858   2.048   1.257
    1QTZ  O6398 6398  10.597   2.029   1.772
    1QTZ  O6399 6399  10.287   2.300   2.379
    1QTZ  O6400 6400  10.544   2.172   2.030
    1QTZ  O6401 6401  10.139   2.132   1.917
    1QTZ  O6402 6402  10.745   2.157   2.564
    1QTZ  O6403 6403  10.425   2.112   1.551
    1QTZ  O6404 6404  10.664   2.048   1.476
    1QTZ  O6405 6405  10.100   2.096   2.388
    1QTZ  O6406 6406  10.377   2.003   1.927
    1QTZ  O6407 6407  13.352   2.324   1.767
    1QTZ  O6408 6408  10.617   2.246   2.310
    1QTZ  O6409 6409  10.350   2.298   1.332
    1QTZ  Si641 6410  10.818   2.090   1.423
    1QTZ  Si641 6411  10.251   2.143   2.324
    1QTZ  Si641 6412  10.540   2.029   1.939
    1QTZ  Si641 6413  10.054   2.273   1.930
    1QTZ  Si641 6414  10.643   2.279   2.484
    1QTZ  Si641 6415  10.376   2.266   1.503
    1QTZ  Si641 6416  10.332   2.406   2.505
    1QTZ  Si641 6417  10.077   2.343   1.605
    1QTZ  Si641 6418  10.631   2.273   2.132
    1QTZ  Si641 6419  10.234   2.029   2.007
    1QTZ  Si642 6420  10.861   2.029   2.526
    1QTZ  Si642 6421  10.554   2.015   1.602
    1QTZ  O6422 6422  10.367   2.496   1.106
    1QTZ  O6423 6423  10.921   2.550   0.210
    1QTZ  O6424 6424  10.663   2.421   0.558
    1QTZ  O6425 6425  10.234   2.880   0.671
    1QTZ  O6426 6426  10.783   2.859   1.037
    1QTZ  O6427 6427  10.463   2.904   0.024
    1QTZ  O6428 6428  10.544   2.794   1.113
    1QTZ  O6429 6429  10.273   2.843   0.200
    1QTZ  O6430 6430  10.829   2.749   0.660
    1QTZ  O6431 6431  10.358   2.573   0.822
    1QTZ  O6432 6432  10.590   2.495   0.278
    1QTZ  O6433 6433  10.304   2.744   1.056
    1QTZ  O6434 6434  10.607   2.674   0.525
    1QTZ  O6435 6435  10.219   2.631   0.579
    1QTZ  O6436 6436  10.708   2.608   1.022
    1QTZ  O6437 6437  10.449   2.652   0.114
    1QTZ  O6438 6438  10.717   2.591   0.034
    1QTZ  O6439 6439  10.133   2.552   0.992
    1QTZ  O6440 6440  10.429   2.493   0.531
    1QTZ  O6441 6441  10.106   2.857   0.432
    1QTZ  O6442 6442  10.610   2.776   0.816
    1QTZ  O6443 6443  10.189   2.715   0.002
    1QTZ  Si644 6444  10.875   2.656   0.084
    1QTZ  Si644 6445  10.296   2.592   0.985
    1QTZ  Si644 6446  10.576   2.522   0.456
    1QTZ  Si644 6447  10.139   2.777   0.581
    1QTZ  Si644 6448  10.654   2.762   0.987
    1QTZ  Si644 6449  10.346   2.776   0.063
    1QTZ  Si645 6450  10.391   2.837   1.165
    1QTZ  Si645 6451  10.123   2.891   0.264
    1QTZ  Si645 6452  10.666   2.776   0.649
    1QTZ  Si645 6453  10.319   2.522   0.659
    1QTZ  Si645 6454  10.832   2.515   1.086
    1QTZ  Si645 6455  10.565   2.528   0.104
    1QTZ  O6456 6456  10.354   2.543   2.412
    1QTZ  O6457 6457  10.904   2.495   1.533
    1QTZ  O6458 6458  10.601   2.425   2.064
    1QTZ  O6459 6459  10.155   2.878   2.009
    1QTZ  O6460 6460  10.758   2.900   2.475
    1QTZ  O6461 6461  10.501   2.857   1.566
    1QTZ  O6462 6462  10.490   2.839   2.555
    1QTZ  O6463 6463  10.241   2.800   1.597
    1QTZ  O6464 6464  10.779   2.743   2.059
    1QTZ  O6465 6465  10.269   2.607   2.156
    1QTZ  O6466 6466  10.858   2.546   1.257
    1QTZ  O6467 6467  10.598   2.527   1.772
    1QTZ  O6468 6468  10.287   2.798   2.379
    1QTZ  O6469 6469  10.545   2.669   2.030
    1QTZ  O6470 6470  10.141   2.629   1.917
    1QTZ  O6471 6471  10.745   2.654   2.564
    1QTZ  O6472 6472  10.425   2.610   1.551
    1QTZ  O6473 6473  10.664   2.545   1.475
    1QTZ  O6474 6474  10.101   2.594   2.387
    1QTZ  O6475 6475  10.379   2.500   1.928
    1QTZ  O6476 6476  13.352   2.821   1.767
    1QTZ  O6477 6477  10.617   2.744   2.310
    1QTZ  O6478 6478  10.350   2.796   1.331
    1QTZ  Si647 6479  10.818   2.588   1.423
    1QTZ  Si648 6480  10.251   2.641   2.324
    1QTZ  Si648 6481  10.542   2.527   1.939
    1QTZ  Si648 6482  10.054   2.771   1.929
    1QTZ  Si648 6483  10.642   2.776   2.484
    1QTZ  Si648 6484  10.377   2.764   1.502
    1QTZ  Si648 6485  10.332   2.904   2.505
    1QTZ  Si648 6486  10.078   2.840   1.604
    1QTZ  Si648 6487  10.631   2.771   2.133
    1QTZ  Si648 6488  10.236   2.527   2.007
    1QTZ  Si648 6489  10.861   2.527   2.526
    1QTZ  Si649 6490  10.554   2.513   1.601
    1QTZ  O6491 6491  10.367   2.994   1.105
    1QTZ  O6492 6492  10.921   3.048   0.210
    1QTZ  O6493 6493  10.663   2.919   0.558
    1QTZ  O6494 6494  10.232   3.377   0.672
    1QTZ  O6495 6495  10.783   3.357   1.037
    1QTZ  O6496 6496  10.462   3.402   0.025
    1QTZ  O6497 6497  10.544   3.293   1.113
    1QTZ  O6498 6498  10.272   3.341   0.201
    1QTZ  O6499 6499  10.830   3.247   0.661
    1QTZ  O6500 6500  10.358   3.071   0.821
    1QTZ  O6501 6501  10.591   2.994   0.278
    1QTZ  O6502 6502  10.304   3.242   1.056
    1QTZ  O6503 6503  10.609   3.172   0.524
    1QTZ  O6504 6504  10.218   3.129   0.579
    1QTZ  O6505 6505  10.707   3.106   1.023
    1QTZ  O6506 6506  10.449   3.150   0.113
    1QTZ  O6507 6507  10.717   3.089   0.033
    1QTZ  O6508 6508  10.133   3.050   0.991
    1QTZ  O6509 6509  10.429   2.993   0.530
    1QTZ  O6510 6510  10.105   3.355   0.432
    1QTZ  O6511 6511  10.611   3.273   0.816
    1QTZ  O6512 6512  10.189   3.213   0.002
    1QTZ  Si651 6513  10.875   3.154   0.083
    1QTZ  Si651 6514  10.296   3.090   0.984
    1QTZ  Si651 6515  10.577   3.021   0.455
    1QTZ  Si651 6516  10.138   3.275   0.581
    1QTZ  Si651 6517  10.654   3.259   0.987
    1QTZ  Si651 6518  10.346   3.274   0.063
    1QTZ  Si651 6519  10.390   3.335   1.166
    1QTZ  Si652 6520  10.122   3.388   0.264
    1QTZ  Si652 6521  10.667   3.274   0.650
    1QTZ  Si652 6522  10.320   3.021   0.659
    1QTZ  Si652 6523  10.831   3.013   1.086
    1QTZ  Si652 6524  10.565   3.026   0.104
    1QTZ  O6525 6525  10.354   3.040   2.412
    1QTZ  O6526 6526  10.904   2.992   1.533
    1QTZ  O6527 6527  10.600   2.923   2.064
    1QTZ  O6528 6528  10.155   3.376   2.009
    1QTZ  O6529 6529  10.758   3.398   2.475
    1QTZ  O6530 6530  10.500   3.354   1.566
    1QTZ  O6531 6531  10.490   3.337   2.555
    1QTZ  O6532 6532  10.241   3.298   1.597
    1QTZ  O6533 6533  10.779   3.240   2.058
    1QTZ  O6534 6534  10.268   3.105   2.156
    1QTZ  O6535 6535  10.858   3.044   1.257
    1QTZ  O6536 6536  10.598   3.024   1.772
    1QTZ  O6537 6537  10.287   3.296   2.379
    1QTZ  O6538 6538  10.544   3.167   2.030
    1QTZ  O6539 6539  10.141   3.127   1.917
    1QTZ  O6540 6540  10.745   3.152   2.564
    1QTZ  O6541 6541  10.425   3.107   1.551
    1QTZ  O6542 6542  10.664   3.043   1.476
    1QTZ  O6543 6543  10.101   3.091   2.388
    1QTZ  O6544 6544  10.378   2.998   1.928
    1QTZ  O6545 6545  13.352   3.319   1.767
    1QTZ  O6546 6546  10.617   3.242   2.310
    1QTZ  O6547 6547  10.350   3.293   1.332
    1QTZ  Si654 6548  10.818   3.085   1.423
    1QTZ  Si654 6549  10.251   3.139   2.324
    1QTZ  Si655 6550  10.541   3.025   1.939
    1QTZ  Si655 6551  10.054   3.268   1.929
    1QTZ  Si655 6552  10.642   3.274   2.484
    1QTZ  Si655 6553  10.376   3.261   1.502
    1QTZ  Si655 6554  10.332   3.402   2.505
    1QTZ  Si655 6555  10.078   3.338   1.604
    1QTZ  Si655 6556  10.631   3.269   2.133
    1QTZ  Si655 6557  10.235   3.025   2.007
    1QTZ  Si655 6558  10.861   3.025   2.526
    1QTZ  Si655 6559  10.554   3.010   1.601
    1QTZ  O6560 6560  11.201   0.007   1.106
    1QTZ  O6561 6561  11.755   0.061   0.210
    1QTZ  O6562 6562  11.497   3.416   0.558
    1QTZ  O6563 6563  11.067   0.391   0.673
    1QTZ  O6564 6564  11.617   0.370   1.038
    1QTZ  O6565 6565  11.296   0.416   0.026
    1QTZ  O6566 6566  11.378   0.306   1.114
    1QTZ  O6567 6567  11.107   0.355   0.201
    1QTZ  O6568 6568  11.664   0.261   0.661
    1QTZ  O6569 6569  11.193   0.085   0.822
    1QTZ  O6570 6570  11.425   0.007   0.279
    1QTZ  O6571 6571  11.139   0.255   1.056
    1QTZ  O6572 6572  10.853   0.304   0.177
    1QTZ  O6573 6573  11.442   0.186   0.525
    1QTZ  O6574 6574  11.053   0.142   0.580
    1QTZ  O6575 6575  11.542   0.119   1.024
    1QTZ  O6576 6576  11.283   0.163   0.114
    1QTZ  O6577 6577  11.551   0.102   0.034
    1QTZ  O6578 6578  10.967   0.063   0.992
    1QTZ  O6579 6579  11.263   0.006   0.531
    1QTZ  O6580 6580  10.939   0.369   0.433
    1QTZ  O6581 6581  11.445   0.287   0.817
    1QTZ  O6582 6582  11.023   0.227   0.003
    1QTZ  Si658 6583  11.709   0.167   0.084
    1QTZ  Si658 6584  11.130   0.103   0.985
    1QTZ  Si658 6585  11.411   0.034   0.456
    1QTZ  Si658 6586  10.972   0.289   0.582
    1QTZ  Si658 6587  11.488   0.273   0.988
    1QTZ  Si658 6588  11.180   0.288   0.064
    1QTZ  Si658 6589  11.225   0.348   1.166
    1QTZ  Si659 6590  10.956   0.402   0.265
    1QTZ  Si659 6591  11.501   0.287   0.650
    1QTZ  Si659 6592  11.154   0.035   0.660
    1QTZ  Si659 6593  11.666   0.026   1.087
    1QTZ  Si659 6594  11.399   0.040   0.105
    1QTZ  O6595 6595  11.188   0.054   2.413
    1QTZ  O6596 6596  11.738   0.006   1.533
    1QTZ  O6597 6597  11.435   3.421   2.064
    1QTZ  O6598 6598  10.989   0.389   2.009
    1QTZ  O6599 6599  11.592   0.411   2.476
    1QTZ  O6600 6600  11.335   0.368   1.566
    1QTZ  O6601 6601  11.324   0.350   2.556
    1QTZ  O6602 6602  11.075   0.311   1.598
    1QTZ  O6603 6603  11.613   0.255   2.059
    1QTZ  O6604 6604  11.103   0.118   2.157
    1QTZ  O6605 6605  11.692   0.057   1.258
    1QTZ  O6606 6606  11.432   0.038   1.773
    1QTZ  O6607 6607  11.121   0.309   2.380
    1QTZ  O6608 6608  10.841   0.255   1.483
    1QTZ  O6609 6609  11.379   0.181   2.031
    1QTZ  O6610 6610  10.976   0.140   1.917
    1QTZ  O6611 6611  11.579   0.166   2.565
    1QTZ  O6612 6612  11.260   0.121   1.552
    1QTZ  O6613 6613  11.498   0.056   1.476
    1QTZ  O6614 6614  10.935   0.105   2.388
    1QTZ  O6615 6615  11.213   0.011   1.929
    1QTZ  O6616 6616  10.850   0.332   1.767
    1QTZ  O6617 6617  11.451   0.255   2.311
    1QTZ  O6618 6618  11.184   0.306   1.332
    1QTZ  Si661 6619  11.652   0.099   1.424
    1QTZ  Si662 6620  11.085   0.152   2.325
    1QTZ  Si662 6621  11.376   0.038   1.940
    1QTZ  Si662 6622  10.889   0.281   1.930
    1QTZ  Si662 6623  11.477   0.288   2.485
    1QTZ  Si662 6624  11.211   0.275   1.503
    1QTZ  Si662 6625  11.166   0.415   2.506
    1QTZ  Si662 6626  10.912   0.351   1.605
    1QTZ  Si662 6627  11.465   0.283   2.134
    1QTZ  Si662 6628  11.070   0.038   2.008
    1QTZ  Si662 6629  11.695   0.038   2.526
    1QTZ  Si663 6630  11.388   0.024   1.602
    1QTZ  O6631 6631  11.201   0.505   1.107
    1QTZ  O6632 6632  11.755   0.559   0.211
    1QTZ  O6633 6633  11.497   0.430   0.559
    1QTZ  O6634 6634  11.066   0.889   0.673
    1QTZ  O6635 6635  11.617   0.868   1.039
    1QTZ  O6636 6636  11.296   0.913   0.025
    1QTZ  O6637 6637  11.378   0.804   1.114
    1QTZ  O6638 6638  11.106   0.852   0.201
    1QTZ  O6639 6639  11.664   0.759   0.662
    1QTZ  O6640 6640  11.192   0.582   0.823
    1QTZ  O6641 6641  11.425   0.505   0.279
    1QTZ  O6642 6642  11.138   0.753   1.057
    1QTZ  O6643 6643  10.853   0.801   0.177
    1QTZ  O6644 6644  11.442   0.684   0.526
    1QTZ  O6645 6645  11.053   0.640   0.580
    1QTZ  O6646 6646  11.542   0.617   1.024
    1QTZ  O6647 6647  11.283   0.661   0.115
    1QTZ  O6648 6648  11.551   0.600   0.035
    1QTZ  O6649 6649  10.967   0.561   0.992
    1QTZ  O6650 6650  11.263   0.503   0.532
    1QTZ  O6651 6651  10.939   0.866   0.433
    1QTZ  O6652 6652  11.444   0.785   0.818
    1QTZ  O6653 6653  11.023   0.724   0.003
    1QTZ  Si665 6654  11.709   0.665   0.084
    1QTZ  Si665 6655  11.130   0.601   0.985
    1QTZ  Si665 6656  11.411   0.532   0.457
    1QTZ  Si665 6657  10.972   0.786   0.582
    1QTZ  Si665 6658  11.488   0.771   0.988
    1QTZ  Si665 6659  11.180   0.786   0.064
    1QTZ  Si666 6660  11.224   0.846   1.167
    1QTZ  Si666 6661  10.956   0.900   0.265
    1QTZ  Si666 6662  11.501   0.785   0.651
    1QTZ  Si666 6663  11.154   0.532   0.660
    1QTZ  Si666 6664  11.666   0.524   1.087
    1QTZ  Si666 6665  11.399   0.537   0.105
    1QTZ  O6666 6666  11.188   0.551   2.413
    1QTZ  O6667 6667  11.738   0.504   1.534
    1QTZ  O6668 6668  11.433   0.435   2.065
    1QTZ  O6669 6669  10.990   0.887   2.010
    1QTZ  O6670 6670  11.592   0.909   2.476
    1QTZ  O6671 6671  11.334   0.865   1.567
    1QTZ  O6672 6672  11.324   0.848   2.556
    1QTZ  O6673 6673  11.075   0.809   1.598
    1QTZ  O6674 6674  11.613   0.750   2.059
    1QTZ  O6675 6675  11.102   0.616   2.157
    1QTZ  O6676 6676  11.692   0.555   1.258
    1QTZ  O6677 6677  11.431   0.536   1.773
    1QTZ  O6678 6678  11.121   0.807   2.380
    1QTZ  O6679 6679  10.841   0.753   1.484
    1QTZ  O6680 6680  11.378   0.679   2.031
    1QTZ  O6681 6681  10.973   0.638   1.918
    1QTZ  O6682 6682  11.579   0.664   2.565
    1QTZ  O6683 6683  11.259   0.619   1.552
    1QTZ  O6684 6684  11.498   0.555   1.476
    1QTZ  O6685 6685  10.934   0.603   2.389
    1QTZ  O6686 6686  11.212   0.510   1.928
    1QTZ  O6687 6687  10.849   0.830   1.768
    1QTZ  O6688 6688  11.451   0.753   2.311
    1QTZ  O6689 6689  11.184   0.805   1.333
    1QTZ  Si669 6690  11.652   0.597   1.424
    1QTZ  Si669 6691  11.085   0.650   2.325
    1QTZ  Si669 6692  11.374   0.536   1.940
    1QTZ  Si669 6693  10.888   0.780   1.931
    1QTZ  Si669 6694  11.477   0.785   2.485
    1QTZ  Si669 6695  11.210   0.773   1.504
    1QTZ  Si669 6696  11.166   0.912   2.506
    1QTZ  Si669 6697  10.912   0.849   1.605
    1QTZ  Si669 6698  11.466   0.780   2.134
    1QTZ  Si669 6699  11.068   0.536   2.008
    1QTZ  Si670 6700  11.695   0.536   2.527
    1QTZ  Si670 6701  11.388   0.522   1.602
    1QTZ  O6702 6702  11.201   1.002   1.107
    1QTZ  O6703 6703  11.755   1.057   0.211
    1QTZ  O6704 6704  11.497   0.928   0.559
    1QTZ  O6705 6705  11.068   1.386   0.672
    1QTZ  O6706 6706  11.617   1.366   1.038
    1QTZ  O6707 6707  11.297   1.411   0.025
    1QTZ  O6708 6708  11.378   1.301   1.114
    1QTZ  O6709 6709  11.107   1.350   0.202
    1QTZ  O6710 6710  11.663   1.256   0.661
    1QTZ  O6711 6711  11.192   1.079   0.823
    1QTZ  O6712 6712  11.424   1.002   0.279
    1QTZ  O6713 6713  11.138   1.251   1.057
    1QTZ  O6714 6714  10.854   1.299   0.177
    1QTZ  O6715 6715  11.441   1.181   0.525
    1QTZ  O6716 6716  11.053   1.138   0.581
    1QTZ  O6717 6717  11.542   1.115   1.024
    1QTZ  O6718 6718  11.283   1.159   0.115
    1QTZ  O6719 6719  11.551   1.098   0.035
    1QTZ  O6720 6720  10.967   1.059   0.992
    1QTZ  O6721 6721  11.262   1.000   0.532
    1QTZ  O6722 6722  10.940   1.364   0.433
    1QTZ  O6723 6723  11.444   1.282   0.817
    1QTZ  O6724 6724  11.023   1.222   0.003
    1QTZ  Si672 6725  11.709   1.163   0.084
    1QTZ  Si672 6726  11.130   1.099   0.985
    1QTZ  Si672 6727  11.410   1.029   0.457
    1QTZ  Si672 6728  10.973   1.284   0.582
    1QTZ  Si672 6729  11.488   1.268   0.988
    1QTZ  Si673 6730  11.180   1.283   0.064
    1QTZ  Si673 6731  11.225   1.344   1.166
    1QTZ  Si673 6732  10.957   1.397   0.265
    1QTZ  Si673 6733  11.500   1.283   0.650
    1QTZ  Si673 6734  11.153   1.029   0.660
    1QTZ  Si673 6735  11.666   1.022   1.087
    1QTZ  Si673 6736  11.399   1.035   0.105
    1QTZ  O6737 6737  11.188   1.049   2.413
    1QTZ  O6738 6738  11.738   1.001   1.534
    1QTZ  O6739 6739  11.436   0.932   2.065
    1QTZ  O6740 6740  10.989   1.385   2.009
    1QTZ  O6741 6741  11.592   1.407   2.476
    1QTZ  O6742 6742  11.335   1.363   1.566
    1QTZ  O6743 6743  11.324   1.346   2.556
    1QTZ  O6744 6744  11.075   1.307   1.598
    1QTZ  O6745 6745  11.613   1.251   2.060
    1QTZ  O6746 6746  11.103   1.114   2.157
    1QTZ  O6747 6747  11.692   1.053   1.258
    1QTZ  O6748 6748  11.432   1.034   1.773
    1QTZ  O6749 6749  11.120   1.305   2.380
    1QTZ  O6750 6750  10.842   1.251   1.483
    1QTZ  O6751 6751  11.379   1.176   2.032
    1QTZ  O6752 6752  10.976   1.136   1.917
    1QTZ  O6753 6753  11.579   1.162   2.565
    1QTZ  O6754 6754  11.260   1.117   1.552
    1QTZ  O6755 6755  11.498   1.051   1.476
    1QTZ  O6756 6756  10.935   1.100   2.388
    1QTZ  O6757 6757  11.214   1.006   1.929
    1QTZ  O6758 6758  10.850   1.327   1.767
    1QTZ  O6759 6759  11.450   1.251   2.311
    1QTZ  O6760 6760  11.184   1.302   1.332
    1QTZ  Si676 6761  11.652   1.094   1.424
    1QTZ  Si676 6762  11.085   1.147   2.325
    1QTZ  Si676 6763  11.376   1.034   1.940
    1QTZ  Si676 6764  10.889   1.276   1.930
    1QTZ  Si676 6765  11.476   1.283   2.485
    1QTZ  Si676 6766  11.211   1.271   1.503
    1QTZ  Si676 6767  11.166   1.411   2.506
    1QTZ  Si676 6768  10.912   1.347   1.605
    1QTZ  Si676 6769  11.464   1.279   2.134
    1QTZ  Si677 6770  11.070   1.033   2.008
    1QTZ  Si677 6771  11.695   1.034   2.527
    1QTZ  Si677 6772  11.388   1.019   1.603
    1QTZ  O6773 6773  11.201   1.500   1.106
    1QTZ  O6774 6774  11.755   1.555   0.211
    1QTZ  O6775 6775  11.497   1.425   0.559
    1QTZ  O6776 6776  11.066   1.884   0.673
    1QTZ  O6777 6777  11.617   1.863   1.038
    1QTZ  O6778 6778  11.296   1.908   0.025
    1QTZ  O6779 6779  11.378   1.800   1.114
    1QTZ  O6780 6780  11.107   1.848   0.201
    1QTZ  O6781 6781  11.664   1.755   0.662
    1QTZ  O6782 6782  11.193   1.578   0.822
    1QTZ  O6783 6783  11.425   1.500   0.279
    1QTZ  O6784 6784  11.138   1.749   1.057
    1QTZ  O6785 6785  10.853   1.797   0.177
    1QTZ  O6786 6786  11.443   1.679   0.525
    1QTZ  O6787 6787  11.053   1.636   0.580
    1QTZ  O6788 6788  11.541   1.612   1.024
    1QTZ  O6789 6789  11.283   1.656   0.114
    1QTZ  O6790 6790  11.551   1.596   0.034
    1QTZ  O6791 6791  10.967   1.556   0.992
    1QTZ  O6792 6792  11.263   1.500   0.531
    1QTZ  O6793 6793  10.939   1.862   0.432
    1QTZ  O6794 6794  11.445   1.780   0.818
    1QTZ  O6795 6795  11.023   1.719   0.003
    1QTZ  Si679 6796  11.710   1.660   0.084
    1QTZ  Si679 6797  11.130   1.597   0.985
    1QTZ  Si679 6798  11.411   1.528   0.457
    1QTZ  Si679 6799  10.972   1.781   0.582
    1QTZ  Si680 6800  11.488   1.766   0.988
    1QTZ  Si680 6801  11.180   1.781   0.063
    1QTZ  Si680 6802  11.224   1.842   1.167
    1QTZ  Si680 6803  10.956   1.895   0.265
    1QTZ  Si680 6804  11.502   1.781   0.651
    1QTZ  Si680 6805  11.154   1.528   0.660
    1QTZ  Si680 6806  11.666   1.519   1.087
    1QTZ  Si680 6807  11.399   1.533   0.105
    1QTZ  O6808 6808  11.187   1.547   2.413
    1QTZ  O6809 6809  11.737   1.499   1.534
    1QTZ  O6810 6810  11.432   1.430   2.065
    1QTZ  O6811 6811  10.990   1.883   2.009
    1QTZ  O6812 6812  11.592   1.905   2.475
    1QTZ  O6813 6813  11.334   1.861   1.567
    1QTZ  O6814 6814  11.324   1.843   2.555
    1QTZ  O6815 6815  11.075   1.805   1.598
    1QTZ  O6816 6816  11.613   1.746   2.058
    1QTZ  O6817 6817  11.102   1.611   2.157
    1QTZ  O6818 6818  11.692   1.550   1.258
    1QTZ  O6819 6819  11.431   1.531   1.773
    1QTZ  O6820 6820  11.121   1.802   2.379
    1QTZ  O6821 6821  10.841   1.748   1.484
    1QTZ  O6822 6822  11.378   1.674   2.031
    1QTZ  O6823 6823  10.973   1.634   1.918
    1QTZ  O6824 6824  11.579   1.659   2.565
    1QTZ  O6825 6825  11.259   1.614   1.552
    1QTZ  O6826 6826  11.498   1.551   1.476
    1QTZ  O6827 6827  10.934   1.598   2.389
    1QTZ  O6828 6828  11.211   1.505   1.928
    1QTZ  O6829 6829  10.849   1.826   1.768
    1QTZ  O6830 6830  11.452   1.749   2.311
    1QTZ  O6831 6831  11.184   1.800   1.333
    1QTZ  Si683 6832  11.652   1.592   1.424
    1QTZ  Si683 6833  11.085   1.645   2.325
    1QTZ  Si683 6834  11.374   1.532   1.940
    1QTZ  Si683 6835  10.888   1.776   1.930
    1QTZ  Si683 6836  11.477   1.781   2.485
    1QTZ  Si683 6837  11.210   1.768   1.503
    1QTZ  Si683 6838  11.166   1.908   2.505
    1QTZ  Si683 6839  10.911   1.845   1.605
    1QTZ  Si684 6840  11.466   1.776   2.133
    1QTZ  Si684 6841  11.068   1.532   2.008
    1QTZ  Si684 6842  11.695   1.531   2.526
    1QTZ  Si684 6843  11.388   1.517   1.602
    1QTZ  O6844 6844  11.201   1.998   1.107
    1QTZ  O6845 6845  11.755   2.052   0.210
    1QTZ  O6846 6846  11.497   1.923   0.559
    1QTZ  O6847 6847  11.068   2.382   0.672
    1QTZ  O6848 6848  11.617   2.361   1.037
    1QTZ  O6849 6849  11.297   2.406   0.025
    1QTZ  O6850 6850  11.378   2.297   1.113
    1QTZ  O6851 6851  11.107   2.346   0.201
    1QTZ  O6852 6852  11.663   2.251   0.661
    1QTZ  O6853 6853  11.192   2.075   0.822
    1QTZ  O6854 6854  11.424   1.997   0.279
    1QTZ  O6855 6855  11.139   2.246   1.056
    1QTZ  O6856 6856  10.854   2.295   0.177
    1QTZ  O6857 6857  11.441   2.177   0.525
    1QTZ  O6858 6858  11.054   2.133   0.580
    1QTZ  O6859 6859  11.542   2.110   1.023
    1QTZ  O6860 6860  11.284   2.154   0.114
    1QTZ  O6861 6861  11.551   2.093   0.034
    1QTZ  O6862 6862  10.967   2.054   0.992
    1QTZ  O6863 6863  11.263   1.995   0.531
    1QTZ  O6864 6864  10.940   2.359   0.432
    1QTZ  O6865 6865  11.444   2.278   0.817
    1QTZ  O6866 6866  11.024   2.217   0.003
    1QTZ  Si686 6867  11.709   2.158   0.084
    1QTZ  Si686 6868  11.130   2.094   0.985
    1QTZ  Si686 6869  11.410   2.025   0.456
    1QTZ  Si687 6870  10.974   2.280   0.582
    1QTZ  Si687 6871  11.488   2.264   0.987
    1QTZ  Si687 6872  11.181   2.279   0.063
    1QTZ  Si687 6873  11.225   2.339   1.166
    1QTZ  Si687 6874  10.957   2.393   0.264
    1QTZ  Si687 6875  11.500   2.278   0.650
    1QTZ  Si687 6876  11.153   2.025   0.660
    1QTZ  Si687 6877  11.666   2.017   1.087
    1QTZ  Si687 6878  11.399   2.030   0.105
    1QTZ  O6879 6879  11.188   2.045   2.413
    1QTZ  O6880 6880  11.738   1.997   1.533
    1QTZ  O6881 6881  11.436   1.928   2.064
    1QTZ  O6882 6882  10.989   2.380   2.009
    1QTZ  O6883 6883  11.592   2.403   2.475
    1QTZ  O6884 6884  11.335   2.359   1.566
    1QTZ  O6885 6885  11.324   2.341   2.556
    1QTZ  O6886 6886  11.075   2.303   1.597
    1QTZ  O6887 6887  11.613   2.246   2.059
    1QTZ  O6888 6888  11.103   2.109   2.157
    1QTZ  O6889 6889  11.692   2.049   1.257
    1QTZ  O6890 6890  11.432   2.029   1.772
    1QTZ  O6891 6891  11.121   2.300   2.379
    1QTZ  O6892 6892  10.842   2.246   1.483
    1QTZ  O6893 6893  11.379   2.172   2.031
    1QTZ  O6894 6894  10.976   2.131   1.917
    1QTZ  O6895 6895  11.579   2.157   2.565
    1QTZ  O6896 6896  11.260   2.112   1.551
    1QTZ  O6897 6897  11.498   2.047   1.476
    1QTZ  O6898 6898  10.935   2.096   2.388
    1QTZ  O6899 6899  11.214   2.002   1.928
    1QTZ  O6900 6900  10.850   2.323   1.767
    1QTZ  O6901 6901  11.451   2.247   2.311
    1QTZ  O6902 6902  11.185   2.298   1.332
    1QTZ  Si690 6903  11.652   2.090   1.423
    1QTZ  Si690 6904  11.085   2.143   2.325
    1QTZ  Si690 6905  11.376   2.029   1.939
    1QTZ  Si690 6906  10.889   2.272   1.929
    1QTZ  Si690 6907  11.477   2.279   2.485
    1QTZ  Si690 6908  11.211   2.266   1.503
    1QTZ  Si690 6909  11.166   2.406   2.506
    1QTZ  Si691 6910  10.912   2.343   1.604
    1QTZ  Si691 6911  11.465   2.274   2.133
    1QTZ  Si691 6912  11.070   2.029   2.008
    1QTZ  Si691 6913  11.695   2.029   2.526
    1QTZ  Si691 6914  11.388   2.015   1.602
    1QTZ  O6915 6915  11.202   2.496   1.106
    1QTZ  O6916 6916  11.755   2.550   0.210
    1QTZ  O6917 6917  11.497   2.421   0.558
    1QTZ  O6918 6918  11.066   2.880   0.672
    1QTZ  O6919 6919  11.617   2.859   1.038
    1QTZ  O6920 6920  11.296   2.904   0.025
    1QTZ  O6921 6921  11.378   2.795   1.113
    1QTZ  O6922 6922  11.107   2.843   0.201
    1QTZ  O6923 6923  11.665   2.750   0.662
    1QTZ  O6924 6924  11.193   2.574   0.822
    1QTZ  O6925 6925  11.425   2.496   0.278
    1QTZ  O6926 6926  11.139   2.744   1.056
    1QTZ  O6927 6927  10.853   2.792   0.176
    1QTZ  O6928 6928  11.443   2.675   0.525
    1QTZ  O6929 6929  11.053   2.631   0.580
    1QTZ  O6930 6930  11.542   2.608   1.024
    1QTZ  O6931 6931  11.283   2.652   0.114
    1QTZ  O6932 6932  11.552   2.591   0.034
    1QTZ  O6933 6933  10.968   2.552   0.992
    1QTZ  O6934 6934  11.263   2.495   0.530
    1QTZ  O6935 6935  10.939   2.857   0.432
    1QTZ  O6936 6936  11.445   2.776   0.817
    1QTZ  O6937 6937  11.023   2.715   0.003
    1QTZ  Si693 6938  11.710   2.656   0.084
    1QTZ  Si693 6939  11.130   2.592   0.984
    1QTZ  Si694 6940  11.411   2.523   0.456
    1QTZ  Si694 6941  10.972   2.777   0.581
    1QTZ  Si694 6942  11.488   2.762   0.988
    1QTZ  Si694 6943  11.180   2.776   0.063
    1QTZ  Si694 6944  11.225   2.837   1.166
    1QTZ  Si694 6945  10.956   2.891   0.264
    1QTZ  Si694 6946  11.502   2.776   0.650
    1QTZ  Si694 6947  11.154   2.524   0.659
    1QTZ  Si694 6948  11.666   2.515   1.087
    1QTZ  Si694 6949  11.399   2.528   0.104
    1QTZ  O6950 6950  11.188   2.543   2.413
    1QTZ  O6951 6951  11.738   2.495   1.533
    1QTZ  O6952 6952  11.434   2.426   2.065
    1QTZ  O6953 6953  10.990   2.878   2.009
    1QTZ  O6954 6954  11.592   2.900   2.475
    1QTZ  O6955 6955  11.334   2.856   1.566
    1QTZ  O6956 6956  11.324   2.839   2.555
    1QTZ  O6957 6957  11.075   2.800   1.597
    1QTZ  O6958 6958  11.613   2.742   2.058
    1QTZ  O6959 6959  11.102   2.607   2.157
    1QTZ  O6960 6960  11.692   2.546   1.257
    1QTZ  O6961 6961  11.432   2.527   1.772
    1QTZ  O6962 6962  11.121   2.798   2.379
    1QTZ  O6963 6963  10.841   2.744   1.483
    1QTZ  O6964 6964  11.379   2.670   2.031
    1QTZ  O6965 6965  10.974   2.629   1.917
    1QTZ  O6966 6966  11.579   2.655   2.564
    1QTZ  O6967 6967  11.259   2.610   1.552
    1QTZ  O6968 6968  11.498   2.546   1.476
    1QTZ  O6969 6969  10.935   2.594   2.388
    1QTZ  O6970 6970  11.212   2.500   1.928
    1QTZ  O6971 6971  10.850   2.821   1.767
    1QTZ  O6972 6972  11.451   2.744   2.310
    1QTZ  O6973 6973  11.184   2.795   1.332
    1QTZ  Si697 6974  11.652   2.588   1.423
    1QTZ  Si697 6975  11.085   2.641   2.325
    1QTZ  Si697 6976  11.375   2.527   1.939
    1QTZ  Si697 6977  10.888   2.771   1.930
    1QTZ  Si697 6978  11.477   2.777   2.484
    1QTZ  Si697 6979  11.210   2.764   1.503
    1QTZ  Si698 6980  11.166   2.904   2.505
    1QTZ  Si698 6981  10.912   2.840   1.604
    1QTZ  Si698 6982  11.466   2.771   2.133
    1QTZ  Si698 6983  11.069   2.527   2.007
    1QTZ  Si698 6984  11.696   2.527   2.526
    1QTZ  Si698 6985  11.388   2.513   1.602
    1QTZ  O6986 6986  11.201   2.994   1.106
    1QTZ  O6987 6987  11.755   3.048   0.210
    1QTZ  O6988 6988  11.498   2.919   0.559
    1QTZ  O6989 6989  11.067   3.377   0.672
    1QTZ  O6990 6990  11.617   3.357   1.038
    1QTZ  O6991 6991  11.297   3.402   0.025
    1QTZ  O6992 6992  11.378   3.292   1.114
    1QTZ  O6993 6993  11.107   3.341   0.201
    1QTZ  O6994 6994  11.663   3.247   0.661
    1QTZ  O6995 6995  11.192   3.071   0.822
    1QTZ  O6996 6996  11.425   2.993   0.279
    1QTZ  O6997 6997  11.139   3.242   1.056
    1QTZ  O6998 6998  10.854   3.290   0.176
    1QTZ  O6999 6999  11.441   3.172   0.525
    1QTZ  O7000 7000  11.054   3.129   0.580
    1QTZ  O7001 7001  11.542   3.106   1.023
    1QTZ  O7002 7002  11.283   3.150   0.114
    1QTZ  O7003 7003  11.551   3.089   0.034
    1QTZ  O7004 7004  10.967   3.050   0.992
    1QTZ  O7005 7005  11.263   2.991   0.531
    1QTZ  O7006 7006  10.940   3.355   0.432
    1QTZ  O7007 7007  11.444   3.274   0.817
    1QTZ  O7008 7008  11.024   3.213   0.002
    1QTZ  Si700 7009  11.709   3.154   0.084
    1QTZ  Si701 7010  11.130   3.090   0.985
    1QTZ  Si701 7011  11.410   3.020   0.456
    1QTZ  Si701 7012  10.973   3.275   0.582
    1QTZ  Si701 7013  11.488   3.259   0.988
    1QTZ  Si701 7014  11.180   3.274   0.063
    1QTZ  Si701 7015  11.225   3.335   1.166
    1QTZ  Si701 7016  10.957   3.388   0.264
    1QTZ  Si701 7017  11.500   3.274   0.650
    1QTZ  Si701 7018  11.153   3.020   0.660
    1QTZ  Si701 7019  11.666   3.013   1.086
    1QTZ  Si702 7020  11.399   3.026   0.105
    1QTZ  O7021 7021  11.188   3.040   2.413
    1QTZ  O7022 7022  11.738   2.992   1.533
    1QTZ  O7023 7023  11.435   2.923   2.064
    1QTZ  O7024 7024  10.989   3.376   2.009
    1QTZ  O7025 7025  11.592   3.398   2.475
    1QTZ  O7026 7026  11.335   3.354   1.567
    1QTZ  O7027 7027  11.324   3.336   2.556
    1QTZ  O7028 7028  11.075   3.298   1.597
    1QTZ  O7029 7029  11.614   3.240   2.059
    1QTZ  O7030 7030  11.103   3.105   2.157
    1QTZ  O7031 7031  11.693   3.044   1.257
    1QTZ  O7032 7032  11.432   3.025   1.772
    1QTZ  O7033 7033  11.121   3.296   2.379
    1QTZ  O7034 7034  10.841   3.242   1.483
    1QTZ  O7035 7035  11.379   3.167   2.031
    1QTZ  O7036 7036  10.974   3.127   1.917
    1QTZ  O7037 7037  11.579   3.152   2.564
    1QTZ  O7038 7038  11.259   3.107   1.551
    1QTZ  O7039 7039  11.498   3.043   1.476
    1QTZ  O7040 7040  10.935   3.091   2.388
    1QTZ  O7041 7041  11.213   2.998   1.928
    1QTZ  O7042 7042  10.850   3.319   1.767
    1QTZ  O7043 7043  11.451   3.242   2.311
    1QTZ  O7044 7044  11.184   3.293   1.332
    1QTZ  Si704 7045  11.652   3.085   1.423
    1QTZ  Si704 7046  11.085   3.139   2.324
    1QTZ  Si704 7047  11.376   3.025   1.939
    1QTZ  Si704 7048  10.888   3.268   1.930
    1QTZ  Si704 7049  11.477   3.274   2.485
    1QTZ  Si705 7050  11.211   3.262   1.503
    1QTZ  Si705 7051  11.166   3.401   2.506
    1QTZ  Si705 7052  10.912   3.338   1.605
    1QTZ  Si705 7053  11.466   3.269   2.133
    1QTZ  Si705 7054  11.069   3.025   2.007
    1QTZ  Si705 7055  11.696   3.025   2.526
    1QTZ  Si705 7056  11.388   3.010   1.602
    1QTZ  O7057 7057  12.035   0.007   1.106
    1QTZ  O7058 7058  12.589   0.061   0.210
    1QTZ  O7059 7059  12.332   3.417   0.558
    1QTZ  O7060 7060  11.901   0.391   0.672
    1QTZ  O7061 7061  12.451   0.370   1.038
    1QTZ  O7062 7062  12.130   0.416   0.025
    1QTZ  O7063 7063  12.212   0.306   1.114
    1QTZ  O7064 7064  11.941   0.355   0.201
    1QTZ  O7065 7065  12.497   0.261   0.661
    1QTZ  O7066 7066  12.027   0.084   0.822
    1QTZ  O7067 7067  12.259   0.007   0.279
    1QTZ  O7068 7068  11.973   0.255   1.057
    1QTZ  O7069 7069  11.688   0.304   0.177
    1QTZ  O7070 7070  12.276   0.186   0.525
    1QTZ  O7071 7071  11.888   0.142   0.580
    1QTZ  O7072 7072  12.376   0.119   1.023
    1QTZ  O7073 7073  12.117   0.163   0.114
    1QTZ  O7074 7074  12.385   0.102   0.034
    1QTZ  O7075 7075  11.801   0.063   0.992
    1QTZ  O7076 7076  12.097   0.005   0.531
    1QTZ  O7077 7077  11.774   0.368   0.433
    1QTZ  O7078 7078  12.278   0.287   0.817
    1QTZ  O7079 7079  11.857   0.227   0.003
    1QTZ  Si708 7080  12.543   0.167   0.084
    1QTZ  Si708 7081  11.964   0.103   0.985
    1QTZ  Si708 7082  12.245   0.034   0.456
    1QTZ  Si708 7083  11.807   0.288   0.582
    1QTZ  Si708 7084  12.322   0.273   0.988
    1QTZ  Si708 7085  12.014   0.288   0.063
    1QTZ  Si708 7086  12.059   0.348   1.167
    1QTZ  Si708 7087  11.791   0.402   0.265
    1QTZ  Si708 7088  12.335   0.288   0.650
    1QTZ  Si708 7089  11.988   0.034   0.660
    1QTZ  Si709 7090  12.500   0.026   1.086
    1QTZ  Si709 7091  12.233   0.040   0.105
    1QTZ  O7092 7092  12.022   0.054   2.413
    1QTZ  O7093 7093  12.572   0.006   1.533
    1QTZ  O7094 7094  12.268   3.421   2.064
    1QTZ  O7095 7095  11.824   0.390   2.010
    1QTZ  O7096 7096  12.426   0.412   2.475
    1QTZ  O7097 7097  12.168   0.368   1.567
    1QTZ  O7098 7098  12.159   0.350   2.556
    1QTZ  O7099 7099  11.909   0.311   1.598
    1QTZ  O7100 7100  12.448   0.253   2.058
    1QTZ  O7101 7101  11.937   0.118   2.157
    1QTZ  O7102 7102  12.527   0.057   1.257
    1QTZ  O7103 7103  12.266   0.038   1.772
    1QTZ  O7104 7104  11.955   0.309   2.379
    1QTZ  O7105 7105  11.675   0.255   1.484
    1QTZ  O7106 7106  12.213   0.181   2.031
    1QTZ  O7107 7107  11.808   0.141   1.918
    1QTZ  O7108 7108  12.414   0.166   2.564
    1QTZ  O7109 7109  12.093   0.121   1.551
    1QTZ  O7110 7110  12.332   0.057   1.476
    1QTZ  O7111 7111  11.769   0.105   2.388
    1QTZ  O7112 7112  12.046   0.012   1.928
    1QTZ  O7113 7113  11.684   0.333   1.768
    1QTZ  O7114 7114  12.286   0.255   2.311
    1QTZ  O7115 7115  12.018   0.307   1.333
    1QTZ  Si711 7116  12.486   0.099   1.423
    1QTZ  Si711 7117  11.919   0.152   2.325
    1QTZ  Si711 7118  12.209   0.039   1.939
    1QTZ  Si711 7119  11.722   0.282   1.930
    1QTZ  Si712 7120  12.311   0.288   2.485
    1QTZ  Si712 7121  12.044   0.275   1.503
    1QTZ  Si712 7122  12.000   0.415   2.506
    1QTZ  Si712 7123  11.746   0.352   1.605
    1QTZ  Si712 7124  12.300   0.283   2.133
    1QTZ  Si712 7125  11.903   0.039   2.008
    1QTZ  Si712 7126  12.530   0.038   2.526
    1QTZ  Si712 7127  12.222   0.024   1.602
    1QTZ  O7128 7128  12.035   0.505   1.106
    1QTZ  O7129 7129  12.589   0.559   0.210
    1QTZ  O7130 7130  12.331   0.430   0.559
    1QTZ  O7131 7131  11.902   0.889   0.673
    1QTZ  O7132 7132  12.451   0.868   1.038
    1QTZ  O7133 7133  12.131   0.913   0.026
    1QTZ  O7134 7134  12.212   0.804   1.114
    1QTZ  O7135 7135  11.941   0.853   0.202
    1QTZ  O7136 7136  12.497   0.758   0.661
    1QTZ  O7137 7137  12.026   0.582   0.822
    1QTZ  O7138 7138  12.259   0.505   0.279
    1QTZ  O7139 7139  11.973   0.753   1.057
    1QTZ  O7140 7140  11.688   0.802   0.177
    1QTZ  O7141 7141  12.275   0.684   0.525
    1QTZ  O7142 7142  11.887   0.640   0.581
    1QTZ  O7143 7143  12.376   0.617   1.023
    1QTZ  O7144 7144  12.117   0.661   0.114
    1QTZ  O7145 7145  12.385   0.600   0.034
    1QTZ  O7146 7146  11.801   0.561   0.992
    1QTZ  O7147 7147  12.097   0.503   0.531
    1QTZ  O7148 7148  11.773   0.866   0.433
    1QTZ  O7149 7149  12.278   0.785   0.817
    1QTZ  O7150 7150  11.857   0.725   0.003
    1QTZ  Si715 7151  12.543   0.665   0.084
    1QTZ  Si715 7152  11.964   0.601   0.985
    1QTZ  Si715 7153  12.244   0.532   0.456
    1QTZ  Si715 7154  11.807   0.786   0.582
    1QTZ  Si715 7155  12.322   0.771   0.988
    1QTZ  Si715 7156  12.014   0.786   0.064
    1QTZ  Si715 7157  12.059   0.846   1.167
    1QTZ  Si715 7158  11.790   0.900   0.265
    1QTZ  Si715 7159  12.335   0.785   0.650
    1QTZ  Si716 7160  11.988   0.532   0.660
    1QTZ  Si716 7161  12.500   0.524   1.087
    1QTZ  Si716 7162  12.233   0.538   0.105
    1QTZ  O7163 7163  12.022   0.552   2.413
    1QTZ  O7164 7164  12.572   0.504   1.533
    1QTZ  O7165 7165  12.270   0.434   2.064
    1QTZ  O7166 7166  11.823   0.887   2.010
    1QTZ  O7167 7167  12.426   0.909   2.476
    1QTZ  O7168 7168  12.169   0.866   1.566
    1QTZ  O7169 7169  12.158   0.848   2.556
    1QTZ  O7170 7170  11.909   0.809   1.598
    1QTZ  O7171 7171  12.447   0.753   2.060
    1QTZ  O7172 7172  11.937   0.616   2.157
    1QTZ  O7173 7173  12.526   0.556   1.257
    1QTZ  O7174 7174  12.266   0.536   1.773
    1QTZ  O7175 7175  11.955   0.807   2.380
    1QTZ  O7176 7176  11.676   0.753   1.484
    1QTZ  O7177 7177  12.213   0.679   2.031
    1QTZ  O7178 7178  11.810   0.638   1.918
    1QTZ  O7179 7179  12.413   0.664   2.565
    1QTZ  O7180 7180  12.094   0.619   1.552
    1QTZ  O7181 7181  12.332   0.554   1.476
    1QTZ  O7182 7182  11.769   0.602   2.389
    1QTZ  O7183 7183  12.047   0.508   1.929
    1QTZ  O7184 7184  11.684   0.829   1.768
    1QTZ  O7185 7185  12.284   0.753   2.311
    1QTZ  O7186 7186  12.018   0.804   1.332
    1QTZ  Si718 7187  12.486   0.597   1.423
    1QTZ  Si718 7188  11.919   0.650   2.325
    1QTZ  Si718 7189  12.210   0.536   1.940
    1QTZ  Si719 7190  11.723   0.779   1.930
    1QTZ  Si719 7191  12.311   0.786   2.485
    1QTZ  Si719 7192  12.045   0.773   1.503
    1QTZ  Si719 7193  12.000   0.913   2.506
    1QTZ  Si719 7194  11.746   0.849   1.605
    1QTZ  Si719 7195  12.299   0.781   2.134
    1QTZ  Si719 7196  11.904   0.536   2.008
    1QTZ  Si719 7197  12.529   0.536   2.526
    1QTZ  Si719 7198  12.222   0.521   1.602
    1QTZ  O7199 7199  12.035   1.003   1.107
    1QTZ  O7200 7200  12.589   1.057   0.210
    1QTZ  O7201 7201  12.331   0.928   0.559
    1QTZ  O7202 7202  11.900   1.386   0.673
    1QTZ  O7203 7203  12.451   1.366   1.039
    1QTZ  O7204 7204  12.130   1.411   0.025
    1QTZ  O7205 7205  12.212   1.302   1.114
    1QTZ  O7206 7206  11.941   1.350   0.202
    1QTZ  O7207 7207  12.498   1.257   0.662
    1QTZ  O7208 7208  12.027   1.080   0.823
    1QTZ  O7209 7209  12.259   1.003   0.279
    1QTZ  O7210 7210  11.972   1.251   1.057
    1QTZ  O7211 7211  11.687   1.299   0.177
    1QTZ  O7212 7212  12.277   1.182   0.526
    1QTZ  O7213 7213  11.887   1.138   0.580
    1QTZ  O7214 7214  12.375   1.115   1.024
    1QTZ  O7215 7215  12.117   1.159   0.115
    1QTZ  O7216 7216  12.385   1.098   0.034
    1QTZ  O7217 7217  11.801   1.058   0.993
    1QTZ  O7218 7218  12.097   1.002   0.531
    1QTZ  O7219 7219  11.773   1.364   0.433
    1QTZ  O7220 7220  12.279   1.283   0.818
    1QTZ  O7221 7221  11.857   1.222   0.003
    1QTZ  Si722 7222  12.543   1.163   0.084
    1QTZ  Si722 7223  11.964   1.099   0.985
    1QTZ  Si722 7224  12.245   1.030   0.457
    1QTZ  Si722 7225  11.806   1.284   0.582
    1QTZ  Si722 7226  12.322   1.269   0.988
    1QTZ  Si722 7227  12.014   1.283   0.064
    1QTZ  Si722 7228  12.058   1.344   1.167
    1QTZ  Si722 7229  11.790   1.397   0.265
    1QTZ  Si723 7230  12.335   1.284   0.651
    1QTZ  Si723 7231  11.988   1.030   0.660
    1QTZ  Si723 7232  12.500   1.022   1.087
    1QTZ  Si723 7233  12.233   1.035   0.105
    1QTZ  O7234 7234  12.022   1.049   2.413
    1QTZ  O7235 7235  12.572   1.002   1.534
    1QTZ  O7236 7236  12.266   0.933   2.065
    1QTZ  O7237 7237  11.824   1.385   2.010
    1QTZ  O7238 7238  12.426   1.407   2.476
    1QTZ  O7239 7239  12.168   1.363   1.567
    1QTZ  O7240 7240  12.159   1.346   2.556
    1QTZ  O7241 7241  11.908   1.307   1.598
    1QTZ  O7242 7242  12.447   1.248   2.058
    1QTZ  O7243 7243  11.936   1.114   2.158
    1QTZ  O7244 7244  12.526   1.052   1.258
    1QTZ  O7245 7245  12.265   1.034   1.773
    1QTZ  O7246 7246  11.955   1.305   2.380
    1QTZ  O7247 7247  11.675   1.251   1.485
    1QTZ  O7248 7248  12.212   1.177   2.031
    1QTZ  O7249 7249  11.807   1.136   1.918
    1QTZ  O7250 7250  12.414   1.161   2.565
    1QTZ  O7251 7251  12.093   1.117   1.552
    1QTZ  O7252 7252  12.332   1.053   1.476
    1QTZ  O7253 7253  11.769   1.101   2.389
    1QTZ  O7254 7254  12.045   1.008   1.928
    1QTZ  O7255 7255  11.683   1.329   1.768
    1QTZ  O7256 7256  12.286   1.251   2.311
    1QTZ  O7257 7257  12.018   1.302   1.333
    1QTZ  Si725 7258  12.486   1.094   1.423
    1QTZ  Si725 7259  11.919   1.148   2.325
    1QTZ  Si726 7260  12.208   1.034   1.940
    1QTZ  Si726 7261  11.722   1.278   1.931
    1QTZ  Si726 7262  12.311   1.283   2.485
    1QTZ  Si726 7263  12.044   1.271   1.504
    1QTZ  Si726 7264  12.000   1.411   2.506
    1QTZ  Si726 7265  11.746   1.347   1.606
    1QTZ  Si726 7266  12.300   1.278   2.133
    1QTZ  Si726 7267  11.902   1.034   2.008
    1QTZ  Si726 7268  12.530   1.034   2.526
    1QTZ  Si726 7269  12.222   1.020   1.602
    1QTZ  O7270 7270  12.035   1.500   1.107
    1QTZ  O7271 7271  12.589   1.555   0.211
    1QTZ  O7272 7272  12.331   1.426   0.559
    1QTZ  O7273 7273  11.903   1.884   0.672
    1QTZ  O7274 7274  12.451   1.863   1.037
    1QTZ  O7275 7275  12.131   1.909   0.025
    1QTZ  O7276 7276  12.212   1.799   1.114
    1QTZ  O7277 7277  11.941   1.848   0.201
    1QTZ  O7278 7278  12.497   1.753   0.661
    1QTZ  O7279 7279  12.026   1.577   0.823
    1QTZ  O7280 7280  12.258   1.500   0.279
    1QTZ  O7281 7281  11.973   1.749   1.057
    1QTZ  O7282 7282  11.688   1.797   0.177
    1QTZ  O7283 7283  12.275   1.679   0.525
    1QTZ  O7284 7284  11.887   1.635   0.581
    1QTZ  O7285 7285  12.376   1.612   1.023
    1QTZ  O7286 7286  12.118   1.657   0.115
    1QTZ  O7287 7287  12.385   1.595   0.034
    1QTZ  O7288 7288  11.801   1.557   0.992
    1QTZ  O7289 7289  12.096   1.498   0.532
    1QTZ  O7290 7290  11.774   1.862   0.433
    1QTZ  O7291 7291  12.278   1.780   0.817
    1QTZ  O7292 7292  11.858   1.720   0.003
    1QTZ  Si729 7293  12.543   1.660   0.084
    1QTZ  Si729 7294  11.964   1.597   0.985
    1QTZ  Si729 7295  12.244   1.527   0.457
    1QTZ  Si729 7296  11.808   1.782   0.582
    1QTZ  Si729 7297  12.322   1.766   0.987
    1QTZ  Si729 7298  12.015   1.781   0.064
    1QTZ  Si729 7299  12.059   1.842   1.166
    1QTZ  Si730 7300  11.791   1.895   0.265
    1QTZ  Si730 7301  12.334   1.781   0.650
    1QTZ  Si730 7302  11.987   1.527   0.660
    1QTZ  Si730 7303  12.500   1.520   1.087
    1QTZ  Si730 7304  12.233   1.533   0.105
    1QTZ  O7305 7305  12.022   1.547   2.413
    1QTZ  O7306 7306  12.572   1.499   1.533
    1QTZ  O7307 7307  12.270   1.430   2.064
    1QTZ  O7308 7308  11.823   1.883   2.009
    1QTZ  O7309 7309  12.427   1.905   2.476
    1QTZ  O7310 7310  12.169   1.861   1.566
    1QTZ  O7311 7311  12.158   1.844   2.556
    1QTZ  O7312 7312  11.910   1.805   1.598
    1QTZ  O7313 7313  12.447   1.749   2.060
    1QTZ  O7314 7314  11.937   1.612   2.157
    1QTZ  O7315 7315  12.526   1.551   1.258
    1QTZ  O7316 7316  12.266   1.532   1.773
    1QTZ  O7317 7317  11.955   1.803   2.380
    1QTZ  O7318 7318  11.676   1.749   1.483
    1QTZ  O7319 7319  12.213   1.674   2.031
    1QTZ  O7320 7320  11.810   1.634   1.917
    1QTZ  O7321 7321  12.413   1.659   2.565
    1QTZ  O7322 7322  12.094   1.614   1.552
    1QTZ  O7323 7323  12.332   1.549   1.476
    1QTZ  O7324 7324  11.769   1.598   2.388
    1QTZ  O7325 7325  12.048   1.504   1.929
    1QTZ  O7326 7326  11.684   1.825   1.767
    1QTZ  O7327 7327  12.285   1.749   2.311
    1QTZ  O7328 7328  12.019   1.800   1.332
    1QTZ  Si732 7329  12.486   1.592   1.424
    1QTZ  Si733 7330  11.919   1.645   2.325
    1QTZ  Si733 7331  12.210   1.532   1.940
    1QTZ  Si733 7332  11.723   1.775   1.930
    1QTZ  Si733 7333  12.311   1.781   2.485
    1QTZ  Si733 7334  12.045   1.768   1.503
    1QTZ  Si733 7335  12.000   1.909   2.506
    1QTZ  Si733 7336  11.747   1.845   1.605
    1QTZ  Si733 7337  12.299   1.777   2.134
    1QTZ  Si733 7338  11.904   1.532   2.008
    1QTZ  Si733 7339  12.529   1.532   2.527
    1QTZ  Si734 7340  12.222   1.517   1.602
    1QTZ  O7341 7341  12.036   1.998   1.106
    1QTZ  O7342 7342  12.589   2.052   0.210
    1QTZ  O7343 7343  12.331   1.923   0.559
    1QTZ  O7344 7344  11.900   2.382   0.672
    1QTZ  O7345 7345  12.452   2.361   1.038
    1QTZ  O7346 7346  12.130   2.406   0.025
    1QTZ  O7347 7347  12.212   2.297   1.114
    1QTZ  O7348 7348  11.941   2.345   0.201
    1QTZ  O7349 7349  12.499   2.253   0.662
    1QTZ  O7350 7350  12.027   2.076   0.822
    1QTZ  O7351 7351  12.259   1.998   0.279
    1QTZ  O7352 7352  11.973   2.246   1.056
    1QTZ  O7353 7353  11.688   2.295   0.177
    1QTZ  O7354 7354  12.278   2.177   0.525
    1QTZ  O7355 7355  11.887   2.133   0.580
    1QTZ  O7356 7356  12.376   2.110   1.024
    1QTZ  O7357 7357  12.118   2.154   0.114
    1QTZ  O7358 7358  12.386   2.093   0.034
    1QTZ  O7359 7359  11.802   2.054   0.992
    1QTZ  O7360 7360  12.097   1.998   0.530
    1QTZ  O7361 7361  11.773   2.359   0.432
    1QTZ  O7362 7362  12.279   2.278   0.817
    1QTZ  O7363 7363  11.857   2.217   0.003
    1QTZ  Si736 7364  12.544   2.158   0.084
    1QTZ  Si736 7365  11.965   2.094   0.985
    1QTZ  Si736 7366  12.245   2.026   0.456
    1QTZ  Si736 7367  11.806   2.279   0.582
    1QTZ  Si736 7368  12.322   2.264   0.988
    1QTZ  Si736 7369  12.014   2.279   0.063
    1QTZ  Si737 7370  12.059   2.339   1.166
    1QTZ  Si737 7371  11.790   2.393   0.264
    1QTZ  Si737 7372  12.336   2.279   0.650
    1QTZ  Si737 7373  11.988   2.026   0.659
    1QTZ  Si737 7374  12.500   2.017   1.087
    1QTZ  Si737 7375  12.233   2.031   0.105
    1QTZ  O7376 7376  12.022   2.045   2.413
    1QTZ  O7377 7377  12.572   1.997   1.534
    1QTZ  O7378 7378  12.267   1.928   2.065
    1QTZ  O7379 7379  11.824   2.381   2.009
    1QTZ  O7380 7380  12.427   2.403   2.475
    1QTZ  O7381 7381  12.169   2.359   1.566
    1QTZ  O7382 7382  12.159   2.341   2.555
    1QTZ  O7383 7383  11.909   2.303   1.598
    1QTZ  O7384 7384  12.448   2.244   2.058
    1QTZ  O7385 7385  11.936   2.109   2.157
    1QTZ  O7386 7386  12.526   2.048   1.257
    1QTZ  O7387 7387  12.266   2.029   1.773
    1QTZ  O7388 7388  11.955   2.300   2.379
    1QTZ  O7389 7389  11.675   2.246   1.484
    1QTZ  O7390 7390  12.213   2.172   2.031
    1QTZ  O7391 7391  11.808   2.132   1.918
    1QTZ  O7392 7392  12.414   2.157   2.564
    1QTZ  O7393 7393  12.093   2.112   1.552
    1QTZ  O7394 7394  12.332   2.048   1.476
    1QTZ  O7395 7395  11.769   2.096   2.389
    1QTZ  O7396 7396  12.046   2.003   1.928
    1QTZ  O7397 7397  11.684   2.324   1.768
    1QTZ  O7398 7398  12.286   2.246   2.310
    1QTZ  O7399 7399  12.018   2.298   1.332
    1QTZ  Si740 7400  12.486   2.090   1.423
    1QTZ  Si740 7401  11.919   2.143   2.325
    1QTZ  Si740 7402  12.209   2.030   1.939
    1QTZ  Si740 7403  11.722   2.273   1.930
    1QTZ  Si740 7404  12.311   2.279   2.484
    1QTZ  Si740 7405  12.044   2.266   1.503
    1QTZ  Si740 7406  12.001   2.406   2.505
    1QTZ  Si740 7407  11.746   2.343   1.605
    1QTZ  Si740 7408  12.300   2.274   2.133
    1QTZ  Si740 7409  11.903   2.029   2.008
    1QTZ  Si741 7410  12.530   2.029   2.526
    1QTZ  Si741 7411  12.222   2.015   1.602
    1QTZ  O7412 7412  12.035   2.496   1.106
    1QTZ  O7413 7413  12.589   2.550   0.210
    1QTZ  O7414 7414  12.332   2.421   0.559
    1QTZ  O7415 7415  11.902   2.880   0.672
    1QTZ  O7416 7416  12.451   2.859   1.037
    1QTZ  O7417 7417  12.131   2.904   0.025
    1QTZ  O7418 7418  12.213   2.794   1.113
    1QTZ  O7419 7419  11.941   2.843   0.201
    1QTZ  O7420 7420  12.497   2.749   0.661
    1QTZ  O7421 7421  12.026   2.573   0.822
    1QTZ  O7422 7422  12.259   2.495   0.279
    1QTZ  O7423 7423  11.973   2.744   1.056
    1QTZ  O7424 7424  11.688   2.792   0.176
    1QTZ  O7425 7425  12.275   2.675   0.525
    1QTZ  O7426 7426  11.888   2.631   0.580
    1QTZ  O7427 7427  12.376   2.608   1.023
    1QTZ  O7428 7428  12.118   2.652   0.114
    1QTZ  O7429 7429  12.385   2.591   0.034
    1QTZ  O7430 7430  11.801   2.552   0.992
    1QTZ  O7431 7431  12.097   2.493   0.531
    1QTZ  O7432 7432  11.774   2.857   0.432
    1QTZ  O7433 7433  12.279   2.776   0.817
    1QTZ  O7434 7434  11.858   2.715   0.002
    1QTZ  Si743 7435  12.544   2.656   0.084
    1QTZ  Si743 7436  11.964   2.592   0.985
    1QTZ  Si743 7437  12.244   2.523   0.456
    1QTZ  Si743 7438  11.808   2.777   0.582
    1QTZ  Si743 7439  12.323   2.762   0.987
    1QTZ  Si744 7440  12.015   2.777   0.063
    1QTZ  Si744 7441  12.059   2.837   1.166
    1QTZ  Si744 7442  11.791   2.891   0.264
    1QTZ  Si744 7443  12.334   2.776   0.650
    1QTZ  Si744 7444  11.988   2.522   0.660
    1QTZ  Si744 7445  12.501   2.515   1.086
    1QTZ  Si744 7446  12.233   2.528   0.105
    1QTZ  O7447 7447  12.022   2.543   2.413
    1QTZ  O7448 7448  12.572   2.495   1.533
    1QTZ  O7449 7449  12.270   2.426   2.064
    1QTZ  O7450 7450  11.824   2.878   2.009
    1QTZ  O7451 7451  12.427   2.900   2.475
    1QTZ  O7452 7452  12.169   2.856   1.566
    1QTZ  O7453 7453  12.159   2.839   2.555
    1QTZ  O7454 7454  11.910   2.800   1.597
    1QTZ  O7455 7455  12.448   2.743   2.059
    1QTZ  O7456 7456  11.937   2.607   2.157
    1QTZ  O7457 7457  12.527   2.546   1.257
    1QTZ  O7458 7458  12.266   2.527   1.772
    1QTZ  O7459 7459  11.955   2.798   2.379
    1QTZ  O7460 7460  11.676   2.744   1.483
    1QTZ  O7461 7461  12.213   2.670   2.031
    1QTZ  O7462 7462  11.809   2.629   1.917
    1QTZ  O7463 7463  12.414   2.655   2.564
    1QTZ  O7464 7464  12.094   2.610   1.551
    1QTZ  O7465 7465  12.333   2.545   1.476
    1QTZ  O7466 7466  11.769   2.594   2.388
    1QTZ  O7467 7467  12.047   2.500   1.928
    1QTZ  O7468 7468  11.684   2.821   1.767
    1QTZ  O7469 7469  12.285   2.744   2.311
    1QTZ  O7470 7470  12.019   2.796   1.332
    1QTZ  Si747 7471  12.486   2.588   1.423
    1QTZ  Si747 7472  11.920   2.641   2.325
    1QTZ  Si747 7473  12.210   2.527   1.939
    1QTZ  Si747 7474  11.723   2.770   1.930
    1QTZ  Si747 7475  12.311   2.777   2.485
    1QTZ  Si747 7476  12.045   2.764   1.503
    1QTZ  Si747 7477  12.001   2.904   2.506
    1QTZ  Si747 7478  11.747   2.840   1.605
    1QTZ  Si747 7479  12.300   2.772   2.133
    1QTZ  Si748 7480  11.904   2.527   2.008
    1QTZ  Si748 7481  12.530   2.527   2.526
    1QTZ  Si748 7482  12.223   2.513   1.602
    1QTZ  O7483 7483  12.036   2.993   1.106
    1QTZ  O7484 7484  12.589   3.048   0.209
    1QTZ  O7485 7485  12.331   2.919   0.558
    1QTZ  O7486 7486  11.901   3.377   0.672
    1QTZ  O7487 7487  12.451   3.356   1.037
    1QTZ  O7488 7488  12.130   3.402   0.025
    1QTZ  O7489 7489  12.213   3.293   1.113
    1QTZ  O7490 7490  11.941   3.341   0.201
    1QTZ  O7491 7491  12.498   3.248   0.661
    1QTZ  O7492 7492  12.027   3.071   0.822
    1QTZ  O7493 7493  12.259   2.994   0.278
    1QTZ  O7494 7494  11.973   3.242   1.056
    1QTZ  O7495 7495  11.688   3.290   0.177
    1QTZ  O7496 7496  12.277   3.173   0.524
    1QTZ  O7497 7497  11.887   3.129   0.580
    1QTZ  O7498 7498  12.376   3.106   1.023
    1QTZ  O7499 7499  12.118   3.150   0.114
    1QTZ  O7500 7500  12.386   3.089   0.033
    1QTZ  O7501 7501  11.802   3.049   0.992
    1QTZ  O7502 7502  12.097   2.993   0.530
    1QTZ  O7503 7503  11.773   3.355   0.432
    1QTZ  O7504 7504  12.279   3.273   0.817
    1QTZ  O7505 7505  11.857   3.213   0.003
    1QTZ  Si750 7506  12.544   3.154   0.083
    1QTZ  Si750 7507  11.965   3.090   0.985
    1QTZ  Si750 7508  12.245   3.021   0.456
    1QTZ  Si750 7509  11.806   3.275   0.582
    1QTZ  Si751 7510  12.323   3.259   0.987
    1QTZ  Si751 7511  12.014   3.274   0.063
    1QTZ  Si751 7512  12.059   3.335   1.166
    1QTZ  Si751 7513  11.790   3.389   0.265
    1QTZ  Si751 7514  12.336   3.274   0.650
    1QTZ  Si751 7515  11.988   3.021   0.659
    1QTZ  Si751 7516  12.500   3.013   1.086
    1QTZ  Si751 7517  12.233   3.026   0.104
    1QTZ  O7518 7518  12.022   3.040   2.413
    1QTZ  O7519 7519  12.572   2.992   1.533
    1QTZ  O7520 7520  12.269   2.923   2.064
    1QTZ  O7521 7521  11.824   3.376   2.009
    1QTZ  O7522 7522  12.426   3.398   2.475
    1QTZ  O7523 7523  12.169   3.354   1.566
    1QTZ  O7524 7524  12.159   3.337   2.555
    1QTZ  O7525 7525  11.909   3.298   1.597
    1QTZ  O7526 7526  12.447   3.241   2.058
    1QTZ  O7527 7527  11.937   3.105   2.157
    1QTZ  O7528 7528  12.526   3.044   1.257
    1QTZ  O7529 7529  12.266   3.025   1.772
    1QTZ  O7530 7530  11.955   3.296   2.379
    1QTZ  O7531 7531  11.676   3.242   1.483
    1QTZ  O7532 7532  12.213   3.167   2.031
    1QTZ  O7533 7533  11.809   3.127   1.917
    1QTZ  O7534 7534  12.414   3.153   2.564
    1QTZ  O7535 7535  12.094   3.107   1.551
    1QTZ  O7536 7536  12.333   3.043   1.476
    1QTZ  O7537 7537  11.769   3.091   2.388
    1QTZ  O7538 7538  12.047   2.998   1.928
    1QTZ  O7539 7539  11.684   3.319   1.767
    1QTZ  O7540 7540  12.285   3.242   2.310
    1QTZ  O7541 7541  12.019   3.293   1.332
    1QTZ  Si754 7542  12.486   3.085   1.423
    1QTZ  Si754 7543  11.919   3.139   2.325
    1QTZ  Si754 7544  12.210   3.025   1.939
    1QTZ  Si754 7545  11.723   3.268   1.930
    1QTZ  Si754 7546  12.311   3.274   2.484
    1QTZ  Si754 7547  12.045   3.261   1.503
    1QTZ  Si754 7548  12.000   3.402   2.506
    1QTZ  Si754 7549  11.746   3.338   1.605
    1QTZ  Si755 7550  12.299   3.269   2.133
    1QTZ  Si755 7551  11.904   3.025   2.008
    1QTZ  Si755 7552  12.530   3.025   2.526
    1QTZ  Si755 7553  12.223   3.010   1.602
    1QTZ  O7554 7554  12.870   0.007   1.105
    1QTZ  O7555 7555  13.165   3.417   0.558
    1QTZ  O7556 7556  12.735   0.391   0.672
    1QTZ  O7557 7557  13.285   0.370   1.037
    1QTZ  O7558 7558  12.965   0.416   0.025
    1QTZ  O7559 7559  13.046   0.306   1.113
    1QTZ  O7560 7560  12.775   0.355   0.201
    1QTZ  O7561 7561  13.332   0.261   0.661
    1QTZ  O7562 7562  12.861   0.085   0.821
    1QTZ  O7563 7563  13.093   0.007   0.278
    1QTZ  O7564 7564  12.807   0.255   1.056
    1QTZ  O7565 7565  12.522   0.304   0.177
    1QTZ  O7566 7566  13.110   0.186   0.524
    1QTZ  O7567 7567  12.721   0.142   0.580
    1QTZ  O7568 7568  13.210   0.119   1.023
    1QTZ  O7569 7569  12.952   0.164   0.114
    1QTZ  O7570 7570  13.220   0.103   0.033
    1QTZ  O7571 7571  12.636   0.063   0.991
    1QTZ  O7572 7572  12.931   0.006   0.530
    1QTZ  O7573 7573  12.607   0.369   0.432
    1QTZ  O7574 7574  13.113   0.287   0.816
    1QTZ  O7575 7575  12.691   0.227   0.002
    1QTZ  Si757 7576  10.041   0.167   0.083
    1QTZ  Si757 7577  12.799   0.103   0.984
    1QTZ  Si757 7578  13.079   0.035   0.455
    1QTZ  Si757 7579  12.641   0.288   0.582
    1QTZ  Si758 7580  13.156   0.273   0.987
    1QTZ  Si758 7581  12.848   0.288   0.063
    1QTZ  Si758 7582  12.893   0.348   1.166
    1QTZ  Si758 7583  12.625   0.402   0.264
    1QTZ  Si758 7584  13.169   0.288   0.649
    1QTZ  Si758 7585  12.822   0.034   0.659
    1QTZ  Si758 7586  13.334   0.026   1.086
    1QTZ  Si758 7587  13.067   0.040   0.104
    1QTZ  O7588 7588  12.856   0.054   2.413
    1QTZ  O7589 7589  13.103   3.421   2.064
    1QTZ  O7590 7590  12.657   0.390   2.009
    1QTZ  O7591 7591  13.261   0.411   2.475
    1QTZ  O7592 7592  13.003   0.368   1.566
    1QTZ  O7593 7593  12.992   0.350   2.555
    1QTZ  O7594 7594  12.743   0.312   1.597
    1QTZ  O7595 7595  13.281   0.255   2.059
    1QTZ  O7596 7596  12.771   0.118   2.157
    1QTZ  O7597 7597  13.100   0.038   1.772
    1QTZ  O7598 7598  12.789   0.309   2.379
    1QTZ  O7599 7599  12.510   0.255   1.483
    1QTZ  O7600 7600  13.047   0.181   2.030
    1QTZ  O7601 7601  12.643   0.140   1.917
    1QTZ  O7602 7602  13.247   0.166   2.564
    1QTZ  O7603 7603  12.928   0.121   1.551
    1QTZ  O7604 7604  13.166   0.057   1.475
    1QTZ  O7605 7605  12.603   0.105   2.388
    1QTZ  O7606 7606  12.881   0.011   1.928
    1QTZ  O7607 7607  12.518   0.332   1.767
    1QTZ  O7608 7608  13.119   0.255   2.310
    1QTZ  O7609 7609  12.852   0.306   1.332
    1QTZ  Si761 7610  13.320   0.099   1.423
    1QTZ  Si761 7611  12.754   0.152   2.324
    1QTZ  Si761 7612  13.044   0.038   1.939
    1QTZ  Si761 7613  12.557   0.281   1.929
    1QTZ  Si761 7614  13.145   0.288   2.484
    1QTZ  Si761 7615  12.879   0.275   1.502
    1QTZ  Si761 7616  12.834   0.415   2.505
    1QTZ  Si761 7617  12.580   0.352   1.604
    1QTZ  Si761 7618  13.133   0.283   2.133
    1QTZ  Si761 7619  12.738   0.038   2.007
    1QTZ  Si762 7620  13.364   0.038   2.526
    1QTZ  Si762 7621  13.056   0.024   1.601
    1QTZ  O7622 7622  12.869   0.505   1.106
    1QTZ  O7623 7623  13.166   0.430   0.558
    1QTZ  O7624 7624  12.735   0.888   0.672
    1QTZ  O7625 7625  13.285   0.868   1.038
    1QTZ  O7626 7626  12.964   0.914   0.025
    1QTZ  O7627 7627  13.046   0.804   1.114
    1QTZ  O7628 7628  12.775   0.853   0.201
    1QTZ  O7629 7629  13.332   0.759   0.661
    1QTZ  O7630 7630  12.860   0.582   0.822
    1QTZ  O7631 7631  13.093   0.505   0.279
    1QTZ  O7632 7632  12.806   0.753   1.056
    1QTZ  O7633 7633  12.522   0.802   0.177
    1QTZ  O7634 7634  13.110   0.684   0.525
    1QTZ  O7635 7635  12.721   0.640   0.580
    1QTZ  O7636 7636  13.210   0.617   1.023
    1QTZ  O7637 7637  12.951   0.661   0.114
    1QTZ  O7638 7638  13.219   0.600   0.034
    1QTZ  O7639 7639  12.635   0.561   0.992
    1QTZ  O7640 7640  12.931   0.503   0.531
    1QTZ  O7641 7641  12.607   0.866   0.432
    1QTZ  O7642 7642  13.113   0.785   0.817
    1QTZ  O7643 7643  12.691   0.725   0.003
    1QTZ  Si764 7644  10.041   0.665   0.084
    1QTZ  Si764 7645  12.798   0.601   0.985
    1QTZ  Si764 7646  13.079   0.532   0.456
    1QTZ  Si764 7647  12.641   0.786   0.582
    1QTZ  Si764 7648  13.156   0.771   0.988
    1QTZ  Si764 7649  12.848   0.786   0.063
    1QTZ  Si765 7650  12.893   0.846   1.166
    1QTZ  Si765 7651  12.624   0.900   0.265
    1QTZ  Si765 7652  13.169   0.786   0.650
    1QTZ  Si765 7653  12.822   0.532   0.660
    1QTZ  Si765 7654  13.334   0.524   1.086
    1QTZ  Si765 7655  13.067   0.538   0.105
    1QTZ  O7656 7656  12.856   0.552   2.413
    1QTZ  O7657 7657  13.101   0.435   2.064
    1QTZ  O7658 7658  12.658   0.887   2.009
    1QTZ  O7659 7659  13.260   0.909   2.475
    1QTZ  O7660 7660  13.002   0.865   1.567
    1QTZ  O7661 7661  12.993   0.848   2.555
    1QTZ  O7662 7662  12.743   0.809   1.598
    1QTZ  O7663 7663  13.282   0.750   2.058
    1QTZ  O7664 7664  12.770   0.616   2.157
    1QTZ  O7665 7665  13.099   0.536   1.772
    1QTZ  O7666 7666  12.789   0.807   2.379
    1QTZ  O7667 7667  12.509   0.753   1.484
    1QTZ  O7668 7668  13.047   0.679   2.030
    1QTZ  O7669 7669  12.641   0.638   1.918
    1QTZ  O7670 7670  13.248   0.663   2.564
    1QTZ  O7671 7671  12.927   0.619   1.551
    1QTZ  O7672 7672  13.166   0.555   1.476
    1QTZ  O7673 7673  12.603   0.603   2.388
    1QTZ  O7674 7674  12.880   0.510   1.927
    1QTZ  O7675 7675  12.517   0.831   1.768
    1QTZ  O7676 7676  13.120   0.753   2.310
    1QTZ  O7677 7677  12.852   0.805   1.332
    1QTZ  Si767 7678  13.320   0.597   1.423
    1QTZ  Si767 7679  12.753   0.650   2.325
    1QTZ  Si768 7680  13.043   0.536   1.939
    1QTZ  Si768 7681  12.556   0.780   1.930
    1QTZ  Si768 7682  13.145   0.785   2.484
    1QTZ  Si768 7683  12.878   0.773   1.503
    1QTZ  Si768 7684  12.835   0.913   2.506
    1QTZ  Si768 7685  12.580   0.850   1.605
    1QTZ  Si768 7686  13.134   0.780   2.133
    1QTZ  Si768 7687  12.737   0.536   2.008
    1QTZ  Si768 7688  13.364   0.536   2.526
    1QTZ  Si768 7689  13.056   0.522   1.601
    1QTZ  O7690 7690  12.869   1.003   1.106
    1QTZ  O7691 7691  13.165   0.928   0.559
    1QTZ  O7692 7692  12.736   1.386   0.672
    1QTZ  O7693 7693  13.285   1.366   1.037
    1QTZ  O7694 7694  12.965   1.411   0.025
    1QTZ  O7695 7695  13.046   1.301   1.113
    1QTZ  O7696 7696  12.775   1.350   0.202
    1QTZ  O7697 7697  13.331   1.256   0.661
    1QTZ  O7698 7698  12.860   1.080   0.822
    1QTZ  O7699 7699  13.093   1.002   0.279
    1QTZ  O7700 7700  12.807   1.251   1.056
    1QTZ  O7701 7701  12.522   1.299   0.177
    1QTZ  O7702 7702  13.109   1.181   0.525
    1QTZ  O7703 7703  12.721   1.138   0.580
    1QTZ  O7704 7704  13.210   1.115   1.023
    1QTZ  O7705 7705  12.952   1.159   0.114
    1QTZ  O7706 7706  13.219   1.098   0.034
    1QTZ  O7707 7707  12.635   1.059   0.992
    1QTZ  O7708 7708  12.930   1.001   0.531
    1QTZ  O7709 7709  12.608   1.364   0.433
    1QTZ  O7710 7710  13.112   1.283   0.817
    1QTZ  O7711 7711  12.691   1.222   0.003
    1QTZ  Si771 7712  10.041   1.163   0.084
    1QTZ  Si771 7713  12.798   1.099   0.985
    1QTZ  Si771 7714  13.078   1.030   0.456
    1QTZ  Si771 7715  12.641   1.284   0.582
    1QTZ  Si771 7716  13.156   1.268   0.987
    1QTZ  Si771 7717  12.848   1.284   0.064
    1QTZ  Si771 7718  12.893   1.344   1.166
    1QTZ  Si771 7719  12.625   1.398   0.265
    1QTZ  Si772 7720  13.168   1.283   0.650
    1QTZ  Si772 7721  12.821   1.029   0.660
    1QTZ  Si772 7722  13.334   1.022   1.087
    1QTZ  Si772 7723  13.067   1.035   0.105
    1QTZ  O7724 7724  12.856   1.049   2.413
    1QTZ  O7725 7725  13.104   0.932   2.064
    1QTZ  O7726 7726  12.657   1.385   2.009
    1QTZ  O7727 7727  13.261   1.407   2.475
    1QTZ  O7728 7728  13.003   1.363   1.566
    1QTZ  O7729 7729  12.992   1.346   2.556
    1QTZ  O7730 7730  12.744   1.307   1.597
    1QTZ  O7731 7731  13.281   1.251   2.060
    1QTZ  O7732 7732  12.771   1.114   2.157
    1QTZ  O7733 7733  13.100   1.034   1.772
    1QTZ  O7734 7734  12.789   1.305   2.380
    1QTZ  O7735 7735  12.510   1.251   1.483
    1QTZ  O7736 7736  13.047   1.176   2.031
    1QTZ  O7737 7737  12.644   1.136   1.917
    1QTZ  O7738 7738  13.247   1.161   2.565
    1QTZ  O7739 7739  12.928   1.116   1.551
    1QTZ  O7740 7740  13.166   1.052   1.476
    1QTZ  O7741 7741  12.603   1.100   2.388
    1QTZ  O7742 7742  12.882   1.006   1.929
    1QTZ  O7743 7743  12.518   1.327   1.767
    1QTZ  O7744 7744  13.119   1.251   2.311
    1QTZ  O7745 7745  12.852   1.302   1.332
    1QTZ  Si774 7746  13.320   1.094   1.423
    1QTZ  Si774 7747  12.754   1.148   2.325
    1QTZ  Si774 7748  13.044   1.034   1.939
    1QTZ  Si774 7749  12.557   1.277   1.930
    1QTZ  Si775 7750  13.145   1.283   2.485
    1QTZ  Si775 7751  12.879   1.270   1.503
    1QTZ  Si775 7752  12.834   1.411   2.506
    1QTZ  Si775 7753  12.581   1.347   1.605
    1QTZ  Si775 7754  13.133   1.279   2.134
    1QTZ  Si775 7755  12.738   1.034   2.008
    1QTZ  Si775 7756  13.363   1.034   2.526
    1QTZ  Si775 7757  13.056   1.019   1.602
    1QTZ  O7758 7758  12.869   1.500   1.106
    1QTZ  O7759 7759  13.165   1.425   0.559
    1QTZ  O7760 7760  12.734   1.884   0.672
    1QTZ  O7761 7761  13.285   1.863   1.038
    1QTZ  O7762 7762  12.965   1.909   0.025
    1QTZ  O7763 7763  13.046   1.800   1.114
    1QTZ  O7764 7764  12.775   1.848   0.201
    1QTZ  O7765 7765  13.333   1.755   0.662
    1QTZ  O7766 7766  12.861   1.578   0.822
    1QTZ  O7767 7767  13.093   1.501   0.279
    1QTZ  O7768 7768  12.807   1.749   1.057
    1QTZ  O7769 7769  12.522   1.797   0.177
    1QTZ  O7770 7770  13.111   1.679   0.525
    1QTZ  O7771 7771  12.721   1.635   0.580
    1QTZ  O7772 7772  13.210   1.612   1.024
    1QTZ  O7773 7773  12.952   1.657   0.114
    1QTZ  O7774 7774  13.220   1.596   0.034
    1QTZ  O7775 7775  12.635   1.556   0.992
    1QTZ  O7776 7776  12.931   1.500   0.531
    1QTZ  O7777 7777  12.607   1.862   0.432
    1QTZ  O7778 7778  13.113   1.781   0.817
    1QTZ  O7779 7779  12.691   1.720   0.003
    1QTZ  Si778 7780  10.041   1.660   0.084
    1QTZ  Si778 7781  12.798   1.597   0.985
    1QTZ  Si778 7782  13.079   1.528   0.456
    1QTZ  Si778 7783  12.640   1.781   0.582
    1QTZ  Si778 7784  13.156   1.766   0.988
    1QTZ  Si778 7785  12.848   1.781   0.063
    1QTZ  Si778 7786  12.893   1.842   1.167
    1QTZ  Si778 7787  12.625   1.895   0.265
    1QTZ  Si778 7788  13.170   1.781   0.650
    1QTZ  Si778 7789  12.822   1.528   0.660
    1QTZ  Si779 7790  13.334   1.519   1.087
    1QTZ  Si779 7791  13.067   1.533   0.105
    1QTZ  O7792 7792  12.856   1.547   2.413
    1QTZ  O7793 7793  13.101   1.430   2.065
    1QTZ  O7794 7794  12.658   1.883   2.009
    1QTZ  O7795 7795  13.261   1.905   2.475
    1QTZ  O7796 7796  13.002   1.861   1.567
    1QTZ  O7797 7797  12.993   1.843   2.555
    1QTZ  O7798 7798  12.743   1.805   1.598
    1QTZ  O7799 7799  13.282   1.745   2.058
    1QTZ  O7800 7800  12.770   1.612   2.157
    1QTZ  O7801 7801  13.099   1.531   1.773
    1QTZ  O7802 7802  12.789   1.803   2.379
    1QTZ  O7803 7803  12.509   1.749   1.484
    1QTZ  O7804 7804  13.047   1.674   2.031
    1QTZ  O7805 7805  12.641   1.634   1.918
    1QTZ  O7806 7806  13.248   1.659   2.564
    1QTZ  O7807 7807  12.927   1.614   1.552
    1QTZ  O7808 7808  13.166   1.550   1.476
    1QTZ  O7809 7809  12.603   1.598   2.389
    1QTZ  O7810 7810  12.880   1.505   1.928
    1QTZ  O7811 7811  12.518   1.826   1.768
    1QTZ  O7812 7812  13.120   1.748   2.310
    1QTZ  O7813 7813  12.852   1.800   1.332
    1QTZ  Si781 7814  13.320   1.592   1.423
    1QTZ  Si781 7815  12.753   1.645   2.325
    1QTZ  Si781 7816  13.042   1.532   1.939
    1QTZ  Si781 7817  12.556   1.776   1.930
    1QTZ  Si781 7818  13.145   1.781   2.484
    1QTZ  Si781 7819  12.878   1.768   1.503
    1QTZ  Si782 7820  12.835   1.908   2.505
    1QTZ  Si782 7821  12.580   1.845   1.605
    1QTZ  Si782 7822  13.134   1.776   2.133
    1QTZ  Si782 7823  12.736   1.532   2.008
    1QTZ  Si782 7824  13.364   1.531   2.526
    1QTZ  Si782 7825  13.056   1.517   1.602
    1QTZ  O7826 7826  12.869   1.998   1.106
    1QTZ  O7827 7827  13.166   1.924   0.559
    1QTZ  O7828 7828  12.737   2.382   0.671
    1QTZ  O7829 7829  13.286   2.361   1.037
    1QTZ  O7830 7830  12.965   2.406   0.024
    1QTZ  O7831 7831  13.047   2.297   1.113
    1QTZ  O7832 7832  12.775   2.346   0.201
    1QTZ  O7833 7833  13.331   2.251   0.660
    1QTZ  O7834 7834  12.860   2.075   0.822
    1QTZ  O7835 7835  13.093   1.998   0.279
    1QTZ  O7836 7836  12.807   2.247   1.056
    1QTZ  O7837 7837  12.522   2.295   0.176
    1QTZ  O7838 7838  13.109   2.177   0.525
    1QTZ  O7839 7839  12.722   2.133   0.580
    1QTZ  O7840 7840  13.211   2.110   1.023
    1QTZ  O7841 7841  12.952   2.154   0.114
    1QTZ  O7842 7842  13.220   2.093   0.034
    1QTZ  O7843 7843  12.635   2.054   0.992
    1QTZ  O7844 7844  12.931   1.995   0.531
    1QTZ  O7845 7845  12.608   2.359   0.432
    1QTZ  O7846 7846  13.113   2.278   0.817
    1QTZ  O7847 7847  12.692   2.217   0.003
    1QTZ  Si784 7848  10.041   2.158   0.084
    1QTZ  Si784 7849  12.798   2.094   0.985
    1QTZ  Si785 7850  13.078   2.025   0.456
    1QTZ  Si785 7851  12.642   2.280   0.582
    1QTZ  Si785 7852  13.157   2.264   0.987
    1QTZ  Si785 7853  12.849   2.279   0.063
    1QTZ  Si785 7854  12.893   2.339   1.166
    1QTZ  Si785 7855  12.625   2.393   0.264
    1QTZ  Si785 7856  13.168   2.279   0.649
    1QTZ  Si785 7857  12.822   2.025   0.660
    1QTZ  Si785 7858  13.334   2.017   1.086
    1QTZ  Si785 7859  13.067   2.030   0.105
    1QTZ  O7860 7860  12.857   2.045   2.413
    1QTZ  O7861 7861  13.104   1.928   2.064
    1QTZ  O7862 7862  12.658   2.380   2.009
    1QTZ  O7863 7863  13.261   2.402   2.475
    1QTZ  O7864 7864  13.003   2.359   1.566
    1QTZ  O7865 7865  12.993   2.342   2.555
    1QTZ  O7866 7866  12.744   2.303   1.597
    1QTZ  O7867 7867  13.282   2.246   2.059
    1QTZ  O7868 7868  12.771   2.109   2.157
    1QTZ  O7869 7869  13.100   2.029   1.772
    1QTZ  O7870 7870  12.789   2.300   2.379
    1QTZ  O7871 7871  12.510   2.246   1.483
    1QTZ  O7872 7872  13.047   2.172   2.031
    1QTZ  O7873 7873  12.644   2.131   1.917
    1QTZ  O7874 7874  13.247   2.157   2.564
    1QTZ  O7875 7875  12.928   2.112   1.551
    1QTZ  O7876 7876  13.167   2.047   1.476
    1QTZ  O7877 7877  12.603   2.096   2.388
    1QTZ  O7878 7878  12.882   2.002   1.928
    1QTZ  O7879 7879  12.519   2.323   1.767
    1QTZ  O7880 7880  13.119   2.247   2.311
    1QTZ  O7881 7881  12.853   2.298   1.332
    1QTZ  Si788 7882  13.320   2.090   1.423
    1QTZ  Si788 7883  12.754   2.143   2.325
    1QTZ  Si788 7884  13.045   2.029   1.939
    1QTZ  Si788 7885  12.557   2.272   1.929
    1QTZ  Si788 7886  13.145   2.279   2.485
    1QTZ  Si788 7887  12.879   2.266   1.502
    1QTZ  Si788 7888  12.835   2.406   2.505
    1QTZ  Si788 7889  12.581   2.343   1.604
    1QTZ  Si789 7890  13.133   2.274   2.133
    1QTZ  Si789 7891  12.738   2.029   2.008
    1QTZ  Si789 7892  13.364   2.029   2.526
    1QTZ  Si789 7893  13.056   2.015   1.602
    1QTZ  O7894 7894  12.870   2.496   1.105
    1QTZ  O7895 7895  13.165   2.421   0.558
    1QTZ  O7896 7896  12.735   2.879   0.672
    1QTZ  O7897 7897  13.286   2.859   1.037
    1QTZ  O7898 7898  12.965   2.904   0.024
    1QTZ  O7899 7899  13.047   2.795   1.113
    1QTZ  O7900 7900  12.775   2.843   0.201
    1QTZ  O7901 7901  13.333   2.750   0.661
    1QTZ  O7902 7902  12.861   2.574   0.821
    1QTZ  O7903 7903  13.094   2.496   0.278
    1QTZ  O7904 7904  12.807   2.744   1.056
    1QTZ  O7905 7905  12.522   2.792   0.176
    1QTZ  O7906 7906  13.112   2.675   0.524
    1QTZ  O7907 7907  12.721   2.631   0.580
    1QTZ  O7908 7908  13.210   2.608   1.023
    1QTZ  O7909 7909  12.952   2.652   0.114
    1QTZ  O7910 7910  13.220   2.591   0.033
    1QTZ  O7911 7911  12.636   2.552   0.991
    1QTZ  O7912 7912  12.931   2.496   0.530
    1QTZ  O7913 7913  12.607   2.857   0.432
    1QTZ  O7914 7914  13.113   2.776   0.816
    1QTZ  O7915 7915  12.692   2.715   0.002
    1QTZ  Si791 7916  10.041   2.656   0.083
    1QTZ  Si791 7917  12.799   2.592   0.984
    1QTZ  Si791 7918  13.080   2.523   0.455
    1QTZ  Si791 7919  12.640   2.777   0.581
    1QTZ  Si792 7920  13.157   2.762   0.987
    1QTZ  Si792 7921  12.849   2.777   0.063
    1QTZ  Si792 7922  12.893   2.837   1.166
    1QTZ  Si792 7923  12.625   2.891   0.264
    1QTZ  Si792 7924  13.170   2.777   0.650
    1QTZ  Si792 7925  12.823   2.524   0.659
    1QTZ  Si792 7926  13.334   2.515   1.086
    1QTZ  Si792 7927  13.068   2.528   0.104
    1QTZ  O7928 7928  12.856   2.543   2.413
    1QTZ  O7929 7929  13.102   2.426   2.064
    1QTZ  O7930 7930  12.658   2.878   2.009
    1QTZ  O7931 7931  13.261   2.900   2.475
    1QTZ  O7932 7932  13.003   2.856   1.566
    1QTZ  O7933 7933  12.993   2.839   2.555
    1QTZ  O7934 7934  12.743   2.800   1.597
    1QTZ  O7935 7935  13.282   2.742   2.058
    1QTZ  O7936 7936  12.771   2.607   2.157
    1QTZ  O7937 7937  13.100   2.527   1.772
    1QTZ  O7938 7938  12.789   2.798   2.379
    1QTZ  O7939 7939  12.509   2.744   1.483
    1QTZ  O7940 7940  13.047   2.670   2.030
    1QTZ  O7941 7941  12.642   2.629   1.917
    1QTZ  O7942 7942  13.248   2.655   2.564
    1QTZ  O7943 7943  12.928   2.610   1.551
    1QTZ  O7944 7944  13.167   2.546   1.475
    1QTZ  O7945 7945  12.603   2.594   2.388
    1QTZ  O7946 7946  12.881   2.500   1.927
    1QTZ  O7947 7947  12.518   2.821   1.767
    1QTZ  O7948 7948  13.120   2.744   2.310
    1QTZ  O7949 7949  12.853   2.795   1.332
    1QTZ  Si795 7950  13.320   2.588   1.423
    1QTZ  Si795 7951  12.754   2.641   2.324
    1QTZ  Si795 7952  13.043   2.527   1.939
    1QTZ  Si795 7953  12.557   2.771   1.930
    1QTZ  Si795 7954  13.145   2.777   2.484
    1QTZ  Si795 7955  12.879   2.764   1.502
    1QTZ  Si795 7956  12.835   2.904   2.505
    1QTZ  Si795 7957  12.580   2.840   1.604
    1QTZ  Si795 7958  13.134   2.772   2.132
    1QTZ  Si795 7959  12.737   2.527   2.007
    1QTZ  Si796 7960  13.364   2.527   2.525
    1QTZ  Si796 7961  13.057   2.513   1.601
    1QTZ  O7962 7962  12.869   2.993   1.106
    1QTZ  O7963 7963  13.166   2.919   0.558
    1QTZ  O7964 7964  12.736   3.377   0.671
    1QTZ  O7965 7965  13.285   3.357   1.037
    1QTZ  O7966 7966  12.965   3.402   0.024
    1QTZ  O7967 7967  13.047   3.292   1.113
    1QTZ  O7968 7968  12.775   3.341   0.200
    1QTZ  O7969 7969  13.331   3.247   0.660
    1QTZ  O7970 7970  12.861   3.070   0.822
    1QTZ  O7971 7971  13.093   2.993   0.278
    1QTZ  O7972 7972  12.807   3.242   1.056
    1QTZ  O7973 7973  12.522   3.290   0.176
    1QTZ  O7974 7974  13.109   3.172   0.525
    1QTZ  O7975 7975  12.722   3.128   0.579
    1QTZ  O7976 7976  13.210   3.106   1.022
    1QTZ  O7977 7977  12.952   3.150   0.114
    1QTZ  O7978 7978  13.220   3.089   0.033
    1QTZ  O7979 7979  12.635   3.050   0.992
    1QTZ  O7980 7980  12.931   2.991   0.531
    1QTZ  O7981 7981  12.608   3.355   0.432
    1QTZ  O7982 7982  13.113   3.274   0.816
    1QTZ  O7983 7983  12.692   3.213   0.002
    1QTZ  Si798 7984  10.041   3.154   0.083
    1QTZ  Si798 7985  12.798   3.090   0.984
    1QTZ  Si798 7986  13.079   3.021   0.456
    1QTZ  Si798 7987  12.642   3.275   0.581
    1QTZ  Si798 7988  13.157   3.259   0.987
    1QTZ  Si798 7989  12.849   3.274   0.063
    1QTZ  Si799 7990  12.893   3.335   1.166
    1QTZ  Si799 7991  12.625   3.388   0.264
    1QTZ  Si799 7992  13.168   3.274   0.649
    1QTZ  Si799 7993  12.822   3.020   0.659
    1QTZ  Si799 7994  13.334   3.013   1.086
    1QTZ  Si799 7995  13.067   3.026   0.104
    1QTZ  O7996 7996  12.857   3.041   2.412
    1QTZ  O7997 7997  13.103   2.923   2.063
    1QTZ  O7998 7998  12.658   3.376   2.009
    1QTZ  O7999 7999  13.261   3.398   2.475
    1QTZ  O8000 8000  13.003   3.354   1.566
    1QTZ  O8001 8001  12.993   3.337   2.555
    1QTZ  O8002 8002  12.743   3.298   1.597
    1QTZ  O8003 8003  13.282   3.240   2.058
    1QTZ  O8004 8004  12.771   3.105   2.156
    1QTZ  O8005 8005  13.100   3.025   1.772
    1QTZ  O8006 8006  12.789   3.296   2.379
    1QTZ  O8007 8007  12.510   3.242   1.483
    1QTZ  O8008 8008  13.047   3.167   2.030
    1QTZ  O8009 8009  12.643   3.127   1.917
    1QTZ  O8010 8010  13.248   3.152   2.564
    1QTZ  O8011 8011  12.928   3.107   1.551
    1QTZ  O8012 8012  13.167   3.043   1.475
    1QTZ  O8013 8013  12.603   3.091   2.388
    1QTZ  O8014 8014  12.881   2.998   1.927
    1QTZ  O8015 8015  12.518   3.319   1.767
    1QTZ  O8016 8016  13.120   3.242   2.310
    1QTZ  O8017 8017  12.853   3.293   1.332
    1QTZ  Si801 8018  13.320   3.085   1.422
    1QTZ  Si801 8019  12.754   3.139   2.324
    1QTZ  Si802 8020  13.044   3.025   1.938
    1QTZ  Si802 8021  12.557   3.269   1.930
    1QTZ  Si802 8022  13.145   3.274   2.484
    1QTZ  Si802 8023  12.879   3.262   1.502
    1QTZ  Si802 8024  12.835   3.402   2.505
    1QTZ  Si802 8025  12.580   3.338   1.604
    1QTZ  Si802 8026  13.134   3.269   2.133
    1QTZ  Si802 8027  12.738   3.025   2.007
    1QTZ  Si802 8028  13.364   3.025   2.526
    1QTZ  Si802 8029  13.057   3.010   1.601
    1QTZ  O8030 8030  10.086   0.061   0.209
    1QTZ  O8031 8031  10.069   0.006   1.533
    1QTZ  O8032 8032  13.360   0.058   1.257
    1QTZ  O8033 8033  10.086   0.559   0.210
    1QTZ  O8034 8034  10.069   0.504   1.533
    1QTZ  O8035 8035  13.360   0.555   1.257
    1QTZ  O8036 8036  10.086   1.057   0.210
    1QTZ  O8037 8037  10.069   1.001   1.533
    1QTZ  O8038 8038  13.360   1.053   1.257
    1QTZ  O8039 8039  10.087   1.555   0.210
    1QTZ  O8040 8040  10.069   1.499   1.533
    1QTZ  O8041 8041  13.360   1.550   1.257
    1QTZ  O8042 8042  10.087   2.052   0.210
    1QTZ  O8043 8043  10.070   1.997   1.533
    1QTZ  O8044 8044  10.024   2.049   1.257
    1QTZ  O8045 8045  10.087   2.550   0.209
    1QTZ  O8046 8046  10.069   2.495   1.533
    1QTZ  O8047 8047  10.024   2.546   1.257
    1QTZ  O8048 8048  10.087   3.048   0.209
    1QTZ  O8049 8049  10.070   2.993   1.532
    1QTZ  O8050 8050  10.024   3.044   1.256
    1QTZ  O8051 8051  13.356   0.304   0.176
    1QTZ  O8052 8052  13.343   0.255   1.483
    1QTZ  O8053 8053  13.356   0.802   0.177
    1QTZ  O8054 8054  13.344   0.753   1.483
    1QTZ  O8055 8055  13.356   1.299   0.177
    1QTZ  O8056 8056  13.343   1.251   1.484
    1QTZ  O8057 8057  13.356   1.797   0.177
    1QTZ  O8058 8058  13.344   1.749   1.483
    1QTZ  O8059 8059  13.356   2.295   0.176
    1QTZ  O8060 8060  13.343   2.246   1.483
    1QTZ  O8061 8061  13.356   2.792   0.176
    1QTZ  O8062 8062  13.344   2.744   1.483
    1QTZ  O8063 8063  13.356   3.290   0.176
    1QTZ  O8064 8064  13.344   3.242   1.483
    1QTZ  O8065 8065  13.703   0.007   1.106
    1QTZ  O8066 8066  14.257   0.061   0.210
    1QTZ  O8067 8067  14.000   3.416   0.558
    1QTZ  O8068 8068  13.569   0.391   0.672
    1QTZ  O8069 8069  14.119   0.370   1.038
    1QTZ  O8070 8070  13.799   0.416   0.025
    1QTZ  O8071 8071  13.881   0.306   1.114
    1QTZ  O8072 8072  13.609   0.355   0.201
    1QTZ  O8073 8073  14.166   0.261   0.661
    1QTZ  O8074 8074  13.695   0.084   0.822
    1QTZ  O8075 8075  13.927   0.007   0.279
    1QTZ  O8076 8076  13.641   0.256   1.056
    1QTZ  O8077 8077  13.944   0.186   0.525
    1QTZ  O8078 8078  13.556   0.142   0.580
    1QTZ  O8079 8079  14.044   0.119   1.023
    1QTZ  O8080 8080  13.786   0.163   0.114
    1QTZ  O8081 8081  14.054   0.102   0.034
    1QTZ  O8082 8082  13.469   0.063   0.992
    1QTZ  O8083 8083  13.765   0.005   0.531
    1QTZ  O8084 8084  13.442   0.368   0.432
    1QTZ  O8085 8085  13.947   0.287   0.817
    1QTZ  O8086 8086  13.526   0.227   0.002
    1QTZ  Si808 8087  14.212   0.167   0.084
    1QTZ  Si808 8088  13.632   0.103   0.985
    1QTZ  Si808 8089  13.913   0.034   0.456
    1QTZ  Si809 8090  13.475   0.288   0.581
    1QTZ  Si809 8091  13.991   0.273   0.988
    1QTZ  Si809 8092  13.683   0.288   0.063
    1QTZ  Si809 8093  13.727   0.348   1.166
    1QTZ  Si809 8094  13.459   0.402   0.264
    1QTZ  Si809 8095  14.003   0.288   0.650
    1QTZ  Si809 8096  13.656   0.034   0.659
    1QTZ  Si809 8097  14.169   0.026   1.086
    1QTZ  Si809 8098  13.901   0.040   0.105
    1QTZ  O8099 8099  13.690   0.054   2.412
    1QTZ  O8100 8100  14.240   0.006   1.533
    1QTZ  O8101 8101  13.936   3.421   2.064
    1QTZ  O8102 8102  13.492   0.390   2.009
    1QTZ  O8103 8103  14.095   0.411   2.475
    1QTZ  O8104 8104  13.837   0.368   1.566
    1QTZ  O8105 8105  13.827   0.350   2.555
    1QTZ  O8106 8106  13.577   0.312   1.597
    1QTZ  O8107 8107  14.116   0.252   2.058
    1QTZ  O8108 8108  13.605   0.119   2.156
    1QTZ  O8109 8109  14.195   0.057   1.257
    1QTZ  O8110 8110  13.934   0.038   1.772
    1QTZ  O8111 8111  13.623   0.309   2.379
    1QTZ  O8112 8112  13.881   0.181   2.031
    1QTZ  O8113 8113  13.476   0.141   1.917
    1QTZ  O8114 8114  14.082   0.165   2.564
    1QTZ  O8115 8115  13.762   0.121   1.551
    1QTZ  O8116 8116  14.001   0.057   1.476
    1QTZ  O8117 8117  13.437   0.105   2.388
    1QTZ  O8118 8118  13.715   0.012   1.927
    1QTZ  O8119 8119  16.689   0.333   1.767
    1QTZ  O8120 8120  13.954   0.255   2.310
    1QTZ  O8121 8121  13.686   0.307   1.332
    1QTZ  Si812 8122  14.154   0.099   1.423
    1QTZ  Si812 8123  13.588   0.152   2.324
    1QTZ  Si812 8124  13.877   0.038   1.939
    1QTZ  Si812 8125  13.390   0.282   1.930
    1QTZ  Si812 8126  13.979   0.287   2.485
    1QTZ  Si812 8127  13.713   0.275   1.503
    1QTZ  Si812 8128  13.669   0.415   2.505
    1QTZ  Si812 8129  13.414   0.352   1.604
    1QTZ  Si813 8130  13.968   0.282   2.133
    1QTZ  Si813 8131  13.571   0.039   2.007
    1QTZ  Si813 8132  14.198   0.038   2.526
    1QTZ  Si813 8133  13.890   0.024   1.601
    1QTZ  O8134 8134  13.521   0.474   2.586
    1QTZ  O8135 8135  13.520   0.972   2.587
    1QTZ  O8136 8136  13.521   1.470   2.587
    1QTZ  O8137 8137  13.521   1.968   2.587
    1QTZ  O8138 8138  13.521   2.466   2.586
    1QTZ  O8139 8139  13.521   2.963   2.586
    1QTZ  O8140 8140  13.521   3.461   2.586
    1QTZ  O8141 8141  14.355   0.474   2.587
    1QTZ  O8142 8142  14.355   0.972   2.587
    1QTZ  O8143 8143  14.354   1.470   2.587
    1QTZ  O8144 8144  14.355   1.968   2.586
    1QTZ  O8145 8145  14.355   2.466   2.587
    1QTZ  O8146 8146  14.355   2.963   2.586
    1QTZ  O8147 8147  14.355   3.461   2.587
    1QTZ  O8148 8148  15.189   0.474   2.587
    1QTZ  O8149 8149  15.189   0.972   2.587
    1QTZ  O8150 8150  15.189   1.470   2.587
    1QTZ  O8151 8151  15.189   1.968   2.587
    1QTZ  O8152 8152  15.189   2.466   2.587
    1QTZ  O8153 8153  15.189   2.963   2.587
    1QTZ  O8154 8154  15.189   3.461   2.587
    1QTZ  O8155 8155  16.023   0.475   2.587
    1QTZ  O8156 8156  16.023   0.972   2.587
    1QTZ  O8157 8157  16.023   1.470   2.587
    1QTZ  O8158 8158  16.024   1.968   2.587
    1QTZ  O8159 8159  16.023   2.466   2.587
    1QTZ  O8160 8160  16.024   2.963   2.586
    1QTZ  O8161 8161  16.023   3.461   2.586
    1QTZ  O8162 8162  13.703   0.505   1.106
    1QTZ  O8163 8163  14.257   0.559   0.210
    1QTZ  O8164 8164  13.999   0.430   0.558
    1QTZ  O8165 8165  13.570   0.889   0.672
    1QTZ  O8166 8166  14.120   0.868   1.037
    1QTZ  O8167 8167  13.799   0.913   0.025
    1QTZ  O8168 8168  13.881   0.804   1.113
    1QTZ  O8169 8169  13.609   0.852   0.201
    1QTZ  O8170 8170  14.166   0.758   0.661
    1QTZ  O8171 8171  13.695   0.582   0.822
    1QTZ  O8172 8172  13.927   0.505   0.278
    1QTZ  O8173 8173  13.641   0.753   1.056
    1QTZ  O8174 8174  13.944   0.683   0.525
    1QTZ  O8175 8175  13.555   0.640   0.580
    1QTZ  O8176 8176  14.044   0.617   1.023
    1QTZ  O8177 8177  13.786   0.661   0.114
    1QTZ  O8178 8178  14.054   0.600   0.034
    1QTZ  O8179 8179  13.469   0.561   0.992
    1QTZ  O8180 8180  13.765   0.503   0.530
    1QTZ  O8181 8181  13.442   0.866   0.433
    1QTZ  O8182 8182  13.947   0.784   0.817
    1QTZ  O8183 8183  13.526   0.725   0.003
    1QTZ  Si818 8184  14.212   0.665   0.084
    1QTZ  Si818 8185  13.632   0.601   0.985
    1QTZ  Si818 8186  13.913   0.532   0.456
    1QTZ  Si818 8187  13.475   0.786   0.582
    1QTZ  Si818 8188  13.991   0.770   0.987
    1QTZ  Si818 8189  13.683   0.786   0.063
    1QTZ  Si819 8190  13.727   0.846   1.166
    1QTZ  Si819 8191  13.459   0.900   0.265
    1QTZ  Si819 8192  14.003   0.785   0.650
    1QTZ  Si819 8193  13.656   0.532   0.659
    1QTZ  Si819 8194  14.168   0.524   1.087
    1QTZ  Si819 8195  13.901   0.537   0.105
    1QTZ  O8196 8196  13.691   0.552   2.413
    1QTZ  O8197 8197  14.240   0.504   1.533
    1QTZ  O8198 8198  13.938   0.434   2.064
    1QTZ  O8199 8199  13.491   0.887   2.009
    1QTZ  O8200 8200  14.095   0.909   2.476
    1QTZ  O8201 8201  13.837   0.866   1.566
    1QTZ  O8202 8202  13.827   0.848   2.556
    1QTZ  O8203 8203  13.578   0.809   1.597
    1QTZ  O8204 8204  14.115   0.753   2.060
    1QTZ  O8205 8205  13.605   0.616   2.157
    1QTZ  O8206 8206  14.195   0.555   1.258
    1QTZ  O8207 8207  13.934   0.536   1.772
    1QTZ  O8208 8208  13.623   0.807   2.379
    1QTZ  O8209 8209  13.881   0.678   2.031
    1QTZ  O8210 8210  13.478   0.638   1.917
    1QTZ  O8211 8211  14.081   0.663   2.565
    1QTZ  O8212 8212  13.762   0.619   1.552
    1QTZ  O8213 8213  14.001   0.554   1.476
    1QTZ  O8214 8214  13.437   0.602   2.388
    1QTZ  O8215 8215  13.716   0.508   1.929
    1QTZ  O8216 8216  16.689   0.829   1.767
    1QTZ  O8217 8217  13.953   0.753   2.311
    1QTZ  O8218 8218  13.687   0.804   1.332
    1QTZ  Si821 8219  14.154   0.597   1.424
    1QTZ  Si822 8220  13.588   0.650   2.325
    1QTZ  Si822 8221  13.879   0.536   1.940
    1QTZ  Si822 8222  13.391   0.779   1.929
    1QTZ  Si822 8223  13.979   0.785   2.485
    1QTZ  Si822 8224  13.713   0.773   1.503
    1QTZ  Si822 8225  13.668   0.913   2.506
    1QTZ  Si822 8226  13.415   0.849   1.604
    1QTZ  Si822 8227  13.967   0.781   2.134
    1QTZ  Si822 8228  13.572   0.536   2.008
    1QTZ  Si822 8229  14.198   0.536   2.526
    1QTZ  Si823 8230  13.891   0.521   1.602
    1QTZ  O8231 8231  13.703   1.002   1.106
    1QTZ  O8232 8232  14.257   1.057   0.210
    1QTZ  O8233 8233  14.000   0.927   0.559
    1QTZ  O8234 8234  13.568   1.386   0.672
    1QTZ  O8235 8235  14.120   1.365   1.038
    1QTZ  O8236 8236  13.799   1.411   0.025
    1QTZ  O8237 8237  13.881   1.302   1.114
    1QTZ  O8238 8238  13.609   1.350   0.201
    1QTZ  O8239 8239  14.167   1.257   0.662
    1QTZ  O8240 8240  13.695   1.080   0.822
    1QTZ  O8241 8241  13.927   1.003   0.279
    1QTZ  O8242 8242  13.641   1.251   1.057
    1QTZ  O8243 8243  13.945   1.181   0.525
    1QTZ  O8244 8244  13.555   1.138   0.580
    1QTZ  O8245 8245  14.044   1.114   1.024
    1QTZ  O8246 8246  13.786   1.159   0.114
    1QTZ  O8247 8247  14.054   1.098   0.034
    1QTZ  O8248 8248  13.469   1.059   0.992
    1QTZ  O8249 8249  13.765   1.001   0.531
    1QTZ  O8250 8250  13.441   1.364   0.432
    1QTZ  O8251 8251  13.947   1.282   0.817
    1QTZ  O8252 8252  13.526   1.222   0.003
    1QTZ  Si825 8253  14.212   1.163   0.084
    1QTZ  Si825 8254  13.632   1.099   0.985
    1QTZ  Si825 8255  13.913   1.030   0.456
    1QTZ  Si825 8256  13.474   1.284   0.582
    1QTZ  Si825 8257  13.991   1.268   0.988
    1QTZ  Si825 8258  13.683   1.283   0.063
    1QTZ  Si825 8259  13.727   1.344   1.167
    1QTZ  Si826 8260  13.459   1.397   0.265
    1QTZ  Si826 8261  14.004   1.283   0.651
    1QTZ  Si826 8262  13.656   1.030   0.660
    1QTZ  Si826 8263  14.168   1.021   1.087
    1QTZ  Si826 8264  13.901   1.035   0.105
    1QTZ  O8265 8265  13.690   1.049   2.413
    1QTZ  O8266 8266  14.240   1.001   1.534
    1QTZ  O8267 8267  13.935   0.932   2.065
    1QTZ  O8268 8268  13.492   1.385   2.009
    1QTZ  O8269 8269  14.095   1.407   2.475
    1QTZ  O8270 8270  13.837   1.363   1.567
    1QTZ  O8271 8271  13.827   1.345   2.555
    1QTZ  O8272 8272  13.577   1.307   1.598
    1QTZ  O8273 8273  14.116   1.247   2.058
    1QTZ  O8274 8274  13.604   1.114   2.157
    1QTZ  O8275 8275  14.195   1.052   1.258
    1QTZ  O8276 8276  13.934   1.033   1.773
    1QTZ  O8277 8277  13.623   1.305   2.379
    1QTZ  O8278 8278  13.881   1.176   2.031
    1QTZ  O8279 8279  13.475   1.136   1.918
    1QTZ  O8280 8280  14.082   1.161   2.564
    1QTZ  O8281 8281  13.761   1.116   1.552
    1QTZ  O8282 8282  14.000   1.053   1.476
    1QTZ  O8283 8283  13.437   1.100   2.388
    1QTZ  O8284 8284  13.714   1.008   1.928
    1QTZ  O8285 8285  16.688   1.328   1.768
    1QTZ  O8286 8286  13.954   1.250   2.310
    1QTZ  O8287 8287  13.686   1.302   1.333
    1QTZ  Si828 8288  14.154   1.094   1.423
    1QTZ  Si828 8289  13.587   1.148   2.325
    1QTZ  Si829 8290  13.877   1.034   1.939
    1QTZ  Si829 8291  13.390   1.278   1.930
    1QTZ  Si829 8292  13.979   1.283   2.485
    1QTZ  Si829 8293  13.712   1.270   1.503
    1QTZ  Si829 8294  13.669   1.410   2.505
    1QTZ  Si829 8295  13.414   1.347   1.605
    1QTZ  Si829 8296  13.968   1.278   2.133
    1QTZ  Si829 8297  13.571   1.034   2.008
    1QTZ  Si829 8298  14.198   1.033   2.526
    1QTZ  Si829 8299  13.890   1.019   1.602
    1QTZ  O8300 8300  13.703   1.500   1.106
    1QTZ  O8301 8301  14.257   1.555   0.211
    1QTZ  O8302 8302  14.000   1.425   0.559
    1QTZ  O8303 8303  13.571   1.884   0.672
    1QTZ  O8304 8304  14.120   1.863   1.037
    1QTZ  O8305 8305  13.799   1.909   0.025
    1QTZ  O8306 8306  13.881   1.799   1.113
    1QTZ  O8307 8307  13.610   1.848   0.201
    1QTZ  O8308 8308  14.165   1.753   0.661
    1QTZ  O8309 8309  13.695   1.577   0.822
    1QTZ  O8310 8310  13.927   1.500   0.279
    1QTZ  O8311 8311  13.641   1.749   1.056
    1QTZ  O8312 8312  13.943   1.679   0.525
    1QTZ  O8313 8313  13.556   1.635   0.580
    1QTZ  O8314 8314  14.045   1.612   1.023
    1QTZ  O8315 8315  13.786   1.656   0.114
    1QTZ  O8316 8316  14.054   1.595   0.034
    1QTZ  O8317 8317  13.469   1.556   0.992
    1QTZ  O8318 8318  13.765   1.498   0.531
    1QTZ  O8319 8319  13.442   1.862   0.433
    1QTZ  O8320 8320  13.947   1.780   0.817
    1QTZ  O8321 8321  13.526   1.720   0.003
    1QTZ  Si832 8322  14.212   1.660   0.084
    1QTZ  Si832 8323  13.632   1.596   0.985
    1QTZ  Si832 8324  13.912   1.527   0.456
    1QTZ  Si832 8325  13.476   1.782   0.582
    1QTZ  Si832 8326  13.991   1.766   0.987
    1QTZ  Si832 8327  13.683   1.781   0.063
    1QTZ  Si832 8328  13.727   1.841   1.166
    1QTZ  Si832 8329  13.459   1.895   0.265
    1QTZ  Si833 8330  14.003   1.780   0.650
    1QTZ  Si833 8331  13.656   1.527   0.660
    1QTZ  Si833 8332  14.169   1.519   1.087
    1QTZ  Si833 8333  13.901   1.532   0.105
    1QTZ  O8334 8334  13.691   1.547   2.413
    1QTZ  O8335 8335  14.240   1.499   1.533
    1QTZ  O8336 8336  13.939   1.430   2.064
    1QTZ  O8337 8337  13.491   1.883   2.009
    1QTZ  O8338 8338  14.095   1.904   2.475
    1QTZ  O8339 8339  13.837   1.861   1.566
    1QTZ  O8340 8340  13.827   1.844   2.556
    1QTZ  O8341 8341  13.578   1.805   1.597
    1QTZ  O8342 8342  14.116   1.749   2.059
    1QTZ  O8343 8343  13.605   1.612   2.157
    1QTZ  O8344 8344  14.195   1.551   1.257
    1QTZ  O8345 8345  13.935   1.531   1.772
    1QTZ  O8346 8346  13.623   1.802   2.379
    1QTZ  O8347 8347  13.882   1.674   2.031
    1QTZ  O8348 8348  13.478   1.634   1.917
    1QTZ  O8349 8349  14.081   1.659   2.565
    1QTZ  O8350 8350  13.762   1.614   1.551
    1QTZ  O8351 8351  14.001   1.549   1.476
    1QTZ  O8352 8352  13.437   1.598   2.388
    1QTZ  O8353 8353  13.716   1.504   1.928
    1QTZ  O8354 8354  16.689   1.825   1.767
    1QTZ  O8355 8355  13.953   1.749   2.311
    1QTZ  O8356 8356  13.687   1.800   1.332
    1QTZ  Si835 8357  14.154   1.592   1.423
    1QTZ  Si835 8358  13.588   1.645   2.325
    1QTZ  Si835 8359  13.879   1.531   1.939
    1QTZ  Si836 8360  13.391   1.774   1.929
    1QTZ  Si836 8361  13.979   1.781   2.485
    1QTZ  Si836 8362  13.713   1.768   1.503
    1QTZ  Si836 8363  13.669   1.908   2.506
    1QTZ  Si836 8364  13.415   1.845   1.604
    1QTZ  Si836 8365  13.967   1.776   2.133
    1QTZ  Si836 8366  13.573   1.531   2.008
    1QTZ  Si836 8367  14.198   1.531   2.526
    1QTZ  Si836 8368  13.891   1.517   1.602
    1QTZ  O8369 8369  13.704   1.998   1.106
    1QTZ  O8370 8370  14.258   2.052   0.210
    1QTZ  O8371 8371  14.000   1.923   0.558
    1QTZ  O8372 8372  13.569   2.382   0.672
    1QTZ  O8373 8373  14.120   2.361   1.038
    1QTZ  O8374 8374  13.799   2.406   0.025
    1QTZ  O8375 8375  13.881   2.297   1.113
    1QTZ  O8376 8376  13.609   2.345   0.201
    1QTZ  O8377 8377  14.167   2.253   0.662
    1QTZ  O8378 8378  13.695   2.076   0.822
    1QTZ  O8379 8379  13.928   1.998   0.279
    1QTZ  O8380 8380  13.641   2.246   1.056
    1QTZ  O8381 8381  13.946   2.177   0.525
    1QTZ  O8382 8382  13.555   2.133   0.580
    1QTZ  O8383 8383  14.044   2.110   1.023
    1QTZ  O8384 8384  13.786   2.154   0.114
    1QTZ  O8385 8385  14.054   2.093   0.034
    1QTZ  O8386 8386  13.470   2.054   0.992
    1QTZ  O8387 8387  13.766   1.998   0.530
    1QTZ  O8388 8388  13.442   2.359   0.432
    1QTZ  O8389 8389  13.948   2.278   0.817
    1QTZ  O8390 8390  13.526   2.217   0.003
    1QTZ  Si839 8391  14.212   2.158   0.084
    1QTZ  Si839 8392  13.633   2.094   0.985
    1QTZ  Si839 8393  13.914   2.025   0.456
    1QTZ  Si839 8394  13.475   2.279   0.581
    1QTZ  Si839 8395  13.991   2.264   0.987
    1QTZ  Si839 8396  13.683   2.279   0.063
    1QTZ  Si839 8397  13.727   2.339   1.166
    1QTZ  Si839 8398  13.459   2.393   0.264
    1QTZ  Si839 8399  14.004   2.279   0.650
    1QTZ  Si840 8400  13.657   2.026   0.659
    1QTZ  Si840 8401  14.168   2.017   1.086
    1QTZ  Si840 8402  13.902   2.030   0.105
    1QTZ  O8403 8403  13.690   2.045   2.413
    1QTZ  O8404 8404  14.240   1.997   1.533
    1QTZ  O8405 8405  13.935   1.928   2.065
    1QTZ  O8406 8406  13.492   2.381   2.009
    1QTZ  O8407 8407  14.095   2.402   2.475
    1QTZ  O8408 8408  13.837   2.359   1.566
    1QTZ  O8409 8409  13.827   2.341   2.555
    1QTZ  O8410 8410  13.577   2.302   1.597
    1QTZ  O8411 8411  14.116   2.244   2.058
    1QTZ  O8412 8412  13.604   2.109   2.157
    1QTZ  O8413 8413  14.195   2.048   1.257
    1QTZ  O8414 8414  13.934   2.029   1.772
    1QTZ  O8415 8415  13.623   2.300   2.379
    1QTZ  O8416 8416  13.881   2.172   2.030
    1QTZ  O8417 8417  13.476   2.132   1.917
    1QTZ  O8418 8418  14.082   2.157   2.564
    1QTZ  O8419 8419  13.762   2.112   1.551
    1QTZ  O8420 8420  14.001   2.048   1.476
    1QTZ  O8421 8421  13.437   2.096   2.388
    1QTZ  O8422 8422  13.714   2.003   1.927
    1QTZ  O8423 8423  16.689   2.324   1.767
    1QTZ  O8424 8424  13.954   2.246   2.310
    1QTZ  O8425 8425  13.686   2.298   1.332
    1QTZ  Si842 8426  14.154   2.090   1.423
    1QTZ  Si842 8427  13.587   2.143   2.324
    1QTZ  Si842 8428  13.877   2.029   1.939
    1QTZ  Si842 8429  13.391   2.273   1.930
    1QTZ  Si843 8430  13.979   2.279   2.484
    1QTZ  Si843 8431  13.713   2.266   1.503
    1QTZ  Si843 8432  13.669   2.406   2.505
    1QTZ  Si843 8433  13.414   2.343   1.605
    1QTZ  Si843 8434  13.968   2.273   2.133
    1QTZ  Si843 8435  13.571   2.029   2.007
    1QTZ  Si843 8436  14.198   2.029   2.526
    1QTZ  Si843 8437  13.890   2.015   1.602
    1QTZ  O8438 8438  13.703   2.496   1.106
    1QTZ  O8439 8439  14.258   2.550   0.210
    1QTZ  O8440 8440  14.000   2.421   0.558
    1QTZ  O8441 8441  13.571   2.880   0.671
    1QTZ  O8442 8442  14.120   2.859   1.037
    1QTZ  O8443 8443  13.799   2.904   0.024
    1QTZ  O8444 8444  13.881   2.794   1.113
    1QTZ  O8445 8445  13.610   2.843   0.200
    1QTZ  O8446 8446  14.165   2.749   0.660
    1QTZ  O8447 8447  13.695   2.573   0.822
    1QTZ  O8448 8448  13.927   2.495   0.278
    1QTZ  O8449 8449  13.641   2.744   1.056
    1QTZ  O8450 8450  13.943   2.674   0.525
    1QTZ  O8451 8451  13.556   2.631   0.579
    1QTZ  O8452 8452  14.045   2.608   1.022
    1QTZ  O8453 8453  13.786   2.652   0.114
    1QTZ  O8454 8454  14.054   2.591   0.034
    1QTZ  O8455 8455  13.470   2.552   0.992
    1QTZ  O8456 8456  13.765   2.493   0.531
    1QTZ  O8457 8457  13.442   2.857   0.432
    1QTZ  O8458 8458  13.947   2.776   0.816
    1QTZ  O8459 8459  13.526   2.715   0.002
    1QTZ  Si846 8460  14.212   2.656   0.084
    1QTZ  Si846 8461  13.633   2.592   0.985
    1QTZ  Si846 8462  13.913   2.522   0.456
    1QTZ  Si846 8463  13.476   2.777   0.581
    1QTZ  Si846 8464  13.991   2.762   0.987
    1QTZ  Si846 8465  13.683   2.776   0.063
    1QTZ  Si846 8466  13.727   2.837   1.165
    1QTZ  Si846 8467  13.459   2.891   0.264
    1QTZ  Si846 8468  14.003   2.776   0.649
    1QTZ  Si846 8469  13.656   2.522   0.659
    1QTZ  Si847 8470  14.169   2.515   1.086
    1QTZ  Si847 8471  13.902   2.528   0.104
    1QTZ  O8472 8472  13.691   2.543   2.412
    1QTZ  O8473 8473  14.241   2.495   1.533
    1QTZ  O8474 8474  13.938   2.425   2.064
    1QTZ  O8475 8475  13.492   2.878   2.009
    1QTZ  O8476 8476  14.095   2.900   2.475
    1QTZ  O8477 8477  13.837   2.857   1.566
    1QTZ  O8478 8478  13.827   2.839   2.555
    1QTZ  O8479 8479  13.578   2.800   1.597
    1QTZ  O8480 8480  14.116   2.743   2.059
    1QTZ  O8481 8481  13.605   2.607   2.156
    1QTZ  O8482 8482  14.195   2.546   1.257
    1QTZ  O8483 8483  13.934   2.527   1.772
    1QTZ  O8484 8484  13.623   2.798   2.379
    1QTZ  O8485 8485  13.882   2.669   2.030
    1QTZ  O8486 8486  13.478   2.629   1.917
    1QTZ  O8487 8487  14.082   2.654   2.564
    1QTZ  O8488 8488  13.762   2.610   1.551
    1QTZ  O8489 8489  14.001   2.545   1.475
    1QTZ  O8490 8490  13.438   2.594   2.387
    1QTZ  O8491 8491  13.716   2.500   1.928
    1QTZ  O8492 8492  16.689   2.821   1.767
    1QTZ  O8493 8493  13.953   2.744   2.310
    1QTZ  O8494 8494  13.687   2.796   1.331
    1QTZ  Si849 8495  14.154   2.588   1.423
    1QTZ  Si849 8496  13.588   2.641   2.324
    1QTZ  Si849 8497  13.878   2.527   1.939
    1QTZ  Si849 8498  13.391   2.771   1.929
    1QTZ  Si849 8499  13.979   2.776   2.484
    1QTZ  Si850 8500  13.713   2.764   1.502
    1QTZ  Si850 8501  13.669   2.904   2.505
    1QTZ  Si850 8502  13.415   2.841   1.604
    1QTZ  Si850 8503  13.968   2.771   2.133
    1QTZ  Si850 8504  13.572   2.527   2.007
    1QTZ  Si850 8505  14.198   2.527   2.526
    1QTZ  Si850 8506  13.891   2.513   1.601
    1QTZ  O8507 8507  13.704   2.994   1.105
    1QTZ  O8508 8508  14.258   3.048   0.210
    1QTZ  O8509 8509  14.000   2.919   0.558
    1QTZ  O8510 8510  13.569   3.377   0.672
    1QTZ  O8511 8511  14.120   3.357   1.037
    1QTZ  O8512 8512  13.799   3.402   0.025
    1QTZ  O8513 8513  13.881   3.293   1.113
    1QTZ  O8514 8514  13.609   3.341   0.201
    1QTZ  O8515 8515  14.167   3.248   0.661
    1QTZ  O8516 8516  13.695   3.071   0.821
    1QTZ  O8517 8517  13.928   2.994   0.278
    1QTZ  O8518 8518  13.641   3.242   1.056
    1QTZ  O8519 8519  13.945   3.172   0.524
    1QTZ  O8520 8520  13.555   3.129   0.579
    1QTZ  O8521 8521  14.044   3.106   1.023
    1QTZ  O8522 8522  13.786   3.150   0.113
    1QTZ  O8523 8523  14.054   3.089   0.033
    1QTZ  O8524 8524  13.470   3.050   0.991
    1QTZ  O8525 8525  13.765   2.993   0.530
    1QTZ  O8526 8526  13.442   3.355   0.432
    1QTZ  O8527 8527  13.947   3.273   0.816
    1QTZ  O8528 8528  13.526   3.213   0.002
    1QTZ  Si852 8529  14.212   3.154   0.083
    1QTZ  Si853 8530  13.633   3.090   0.984
    1QTZ  Si853 8531  13.914   3.021   0.455
    1QTZ  Si853 8532  13.475   3.275   0.581
    1QTZ  Si853 8533  13.991   3.259   0.987
    1QTZ  Si853 8534  13.683   3.274   0.063
    1QTZ  Si853 8535  13.727   3.335   1.166
    1QTZ  Si853 8536  13.459   3.388   0.264
    1QTZ  Si853 8537  14.004   3.274   0.650
    1QTZ  Si853 8538  13.656   3.021   0.659
    1QTZ  Si853 8539  14.168   3.013   1.086
    1QTZ  Si854 8540  13.902   3.026   0.104
    1QTZ  O8541 8541  13.691   3.040   2.412
    1QTZ  O8542 8542  14.240   2.992   1.533
    1QTZ  O8543 8543  13.937   2.923   2.064
    1QTZ  O8544 8544  13.492   3.376   2.009
    1QTZ  O8545 8545  14.095   3.398   2.475
    1QTZ  O8546 8546  13.837   3.354   1.566
    1QTZ  O8547 8547  13.827   3.337   2.555
    1QTZ  O8548 8548  13.578   3.298   1.597
    1QTZ  O8549 8549  14.116   3.240   2.058
    1QTZ  O8550 8550  13.605   3.105   2.156
    1QTZ  O8551 8551  14.195   3.044   1.257
    1QTZ  O8552 8552  13.934   3.024   1.772
    1QTZ  O8553 8553  13.623   3.296   2.379
    1QTZ  O8554 8554  13.881   3.167   2.030
    1QTZ  O8555 8555  13.477   3.127   1.917
    1QTZ  O8556 8556  14.082   3.152   2.564
    1QTZ  O8557 8557  13.762   3.107   1.551
    1QTZ  O8558 8558  14.001   3.043   1.476
    1QTZ  O8559 8559  13.437   3.091   2.388
    1QTZ  O8560 8560  13.715   2.998   1.928
    1QTZ  O8561 8561  16.689   3.319   1.767
    1QTZ  O8562 8562  13.953   3.242   2.310
    1QTZ  O8563 8563  13.687   3.293   1.332
    1QTZ  Si856 8564  14.154   3.085   1.423
    1QTZ  Si856 8565  13.588   3.139   2.324
    1QTZ  Si856 8566  13.878   3.025   1.939
    1QTZ  Si856 8567  13.391   3.268   1.929
    1QTZ  Si856 8568  13.979   3.274   2.484
    1QTZ  Si856 8569  13.713   3.261   1.502
    1QTZ  Si857 8570  13.669   3.402   2.505
    1QTZ  Si857 8571  13.415   3.338   1.604
    1QTZ  Si857 8572  13.968   3.269   2.133
    1QTZ  Si857 8573  13.572   3.025   2.007
    1QTZ  Si857 8574  14.198   3.025   2.526
    1QTZ  Si857 8575  13.891   3.010   1.601
    1QTZ  O8576 8576  14.538   0.007   1.106
    1QTZ  O8577 8577  15.092   0.061   0.210
    1QTZ  O8578 8578  14.834   3.416   0.558
    1QTZ  O8579 8579  14.403   0.391   0.673
    1QTZ  O8580 8580  14.954   0.370   1.038
    1QTZ  O8581 8581  14.633   0.416   0.026
    1QTZ  O8582 8582  14.715   0.306   1.114
    1QTZ  O8583 8583  14.443   0.355   0.201
    1QTZ  O8584 8584  15.001   0.261   0.662
    1QTZ  O8585 8585  14.529   0.085   0.822
    1QTZ  O8586 8586  14.762   0.007   0.279
    1QTZ  O8587 8587  14.475   0.255   1.056
    1QTZ  O8588 8588  14.190   0.304   0.177
    1QTZ  O8589 8589  14.779   0.186   0.525
    1QTZ  O8590 8590  14.390   0.142   0.580
    1QTZ  O8591 8591  14.879   0.119   1.024
    1QTZ  O8592 8592  14.620   0.163   0.114
    1QTZ  O8593 8593  14.888   0.103   0.034
    1QTZ  O8594 8594  14.304   0.063   0.992
    1QTZ  O8595 8595  14.599   0.006   0.531
    1QTZ  O8596 8596  14.276   0.369   0.433
    1QTZ  O8597 8597  14.781   0.287   0.817
    1QTZ  O8598 8598  14.360   0.227   0.003
    1QTZ  Si859 8599  15.046   0.167   0.084
    1QTZ  Si860 8600  14.467   0.103   0.985
    1QTZ  Si860 8601  14.747   0.034   0.456
    1QTZ  Si860 8602  14.309   0.289   0.582
    1QTZ  Si860 8603  14.825   0.273   0.988
    1QTZ  Si860 8604  14.517   0.288   0.064
    1QTZ  Si860 8605  14.561   0.348   1.166
    1QTZ  Si860 8606  14.293   0.402   0.265
    1QTZ  Si860 8607  14.838   0.287   0.650
    1QTZ  Si860 8608  14.490   0.035   0.660
    1QTZ  Si860 8609  15.003   0.026   1.087
    1QTZ  Si861 8610  14.736   0.040   0.105
    1QTZ  O8611 8611  14.525   0.054   2.413
    1QTZ  O8612 8612  15.075   0.006   1.533
    1QTZ  O8613 8613  14.772   3.421   2.064
    1QTZ  O8614 8614  14.326   0.389   2.009
    1QTZ  O8615 8615  14.929   0.411   2.476
    1QTZ  O8616 8616  14.671   0.368   1.566
    1QTZ  O8617 8617  14.661   0.350   2.556
    1QTZ  O8618 8618  14.412   0.311   1.598
    1QTZ  O8619 8619  14.950   0.255   2.059
    1QTZ  O8620 8620  14.439   0.118   2.157
    1QTZ  O8621 8621  15.029   0.057   1.258
    1QTZ  O8622 8622  14.769   0.038   1.773
    1QTZ  O8623 8623  14.457   0.309   2.380
    1QTZ  O8624 8624  14.178   0.255   1.483
    1QTZ  O8625 8625  14.716   0.181   2.031
    1QTZ  O8626 8626  14.312   0.140   1.917
    1QTZ  O8627 8627  14.916   0.166   2.565
    1QTZ  O8628 8628  14.596   0.121   1.552
    1QTZ  O8629 8629  14.835   0.057   1.476
    1QTZ  O8630 8630  14.272   0.105   2.388
    1QTZ  O8631 8631  14.550   0.011   1.929
    1QTZ  O8632 8632  14.187   0.332   1.767
    1QTZ  O8633 8633  14.787   0.255   2.311
    1QTZ  O8634 8634  14.521   0.306   1.332
    1QTZ  Si863 8635  14.989   0.099   1.424
    1QTZ  Si863 8636  14.422   0.152   2.325
    1QTZ  Si863 8637  14.713   0.038   1.940
    1QTZ  Si863 8638  14.225   0.281   1.930
    1QTZ  Si863 8639  14.813   0.288   2.485
    1QTZ  Si864 8640  14.547   0.275   1.503
    1QTZ  Si864 8641  14.503   0.415   2.506
    1QTZ  Si864 8642  14.249   0.351   1.605
    1QTZ  Si864 8643  14.802   0.283   2.134
    1QTZ  Si864 8644  14.407   0.038   2.008
    1QTZ  Si864 8645  15.032   0.038   2.526
    1QTZ  Si864 8646  14.725   0.024   1.602
    1QTZ  O8647 8647  14.538   0.505   1.107
    1QTZ  O8648 8648  15.092   0.559   0.211
    1QTZ  O8649 8649  14.834   0.430   0.559
    1QTZ  O8650 8650  14.403   0.889   0.673
    1QTZ  O8651 8651  14.954   0.868   1.039
    1QTZ  O8652 8652  14.633   0.913   0.025
    1QTZ  O8653 8653  14.715   0.804   1.114
    1QTZ  O8654 8654  14.443   0.852   0.201
    1QTZ  O8655 8655  15.000   0.759   0.662
    1QTZ  O8656 8656  14.529   0.582   0.823
    1QTZ  O8657 8657  14.761   0.505   0.279
    1QTZ  O8658 8658  14.475   0.753   1.057
    1QTZ  O8659 8659  14.190   0.801   0.177
    1QTZ  O8660 8660  14.779   0.684   0.526
    1QTZ  O8661 8661  14.390   0.640   0.580
    1QTZ  O8662 8662  14.878   0.617   1.024
    1QTZ  O8663 8663  14.620   0.661   0.115
    1QTZ  O8664 8664  14.888   0.600   0.035
    1QTZ  O8665 8665  14.304   0.561   0.992
    1QTZ  O8666 8666  14.600   0.503   0.532
    1QTZ  O8667 8667  14.276   0.866   0.433
    1QTZ  O8668 8668  14.781   0.785   0.818
    1QTZ  O8669 8669  14.360   0.724   0.003
    1QTZ  Si867 8670  15.046   0.665   0.084
    1QTZ  Si867 8671  14.467   0.601   0.985
    1QTZ  Si867 8672  14.747   0.532   0.457
    1QTZ  Si867 8673  14.309   0.786   0.582
    1QTZ  Si867 8674  14.825   0.771   0.988
    1QTZ  Si867 8675  14.517   0.786   0.064
    1QTZ  Si867 8676  14.561   0.846   1.167
    1QTZ  Si867 8677  14.293   0.900   0.265
    1QTZ  Si867 8678  14.838   0.785   0.651
    1QTZ  Si867 8679  14.490   0.532   0.660
    1QTZ  Si868 8680  15.003   0.524   1.087
    1QTZ  Si868 8681  14.736   0.537   0.105
    1QTZ  O8682 8682  14.524   0.551   2.413
    1QTZ  O8683 8683  15.074   0.504   1.534
    1QTZ  O8684 8684  14.770   0.435   2.065
    1QTZ  O8685 8685  14.326   0.887   2.010
    1QTZ  O8686 8686  14.929   0.909   2.476
    1QTZ  O8687 8687  14.671   0.865   1.567
    1QTZ  O8688 8688  14.661   0.848   2.556
    1QTZ  O8689 8689  14.411   0.809   1.598
    1QTZ  O8690 8690  14.950   0.750   2.059
    1QTZ  O8691 8691  14.439   0.616   2.157
    1QTZ  O8692 8692  15.029   0.555   1.258
    1QTZ  O8693 8693  14.768   0.536   1.773
    1QTZ  O8694 8694  14.457   0.807   2.380
    1QTZ  O8695 8695  14.177   0.753   1.484
    1QTZ  O8696 8696  14.715   0.679   2.031
    1QTZ  O8697 8697  14.310   0.638   1.918
    1QTZ  O8698 8698  14.916   0.664   2.565
    1QTZ  O8699 8699  14.596   0.619   1.552
    1QTZ  O8700 8700  14.835   0.555   1.476
    1QTZ  O8701 8701  14.271   0.603   2.389
    1QTZ  O8702 8702  14.548   0.510   1.928
    1QTZ  O8703 8703  14.186   0.830   1.768
    1QTZ  O8704 8704  14.788   0.753   2.311
    1QTZ  O8705 8705  14.521   0.805   1.333
    1QTZ  Si870 8706  14.988   0.597   1.424
    1QTZ  Si870 8707  14.422   0.650   2.325
    1QTZ  Si870 8708  14.711   0.536   1.940
    1QTZ  Si870 8709  14.224   0.780   1.931
    1QTZ  Si871 8710  14.814   0.785   2.485
    1QTZ  Si871 8711  14.547   0.773   1.504
    1QTZ  Si871 8712  14.503   0.912   2.506
    1QTZ  Si871 8713  14.248   0.849   1.605
    1QTZ  Si871 8714  14.803   0.780   2.134
    1QTZ  Si871 8715  14.405   0.536   2.008
    1QTZ  Si871 8716  15.032   0.536   2.526
    1QTZ  Si871 8717  14.725   0.522   1.602
    1QTZ  O8718 8718  14.538   1.002   1.107
    1QTZ  O8719 8719  15.091   1.057   0.211
    1QTZ  O8720 8720  14.834   0.928   0.559
    1QTZ  O8721 8721  14.405   1.386   0.672
    1QTZ  O8722 8722  14.954   1.366   1.038
    1QTZ  O8723 8723  14.633   1.411   0.025
    1QTZ  O8724 8724  14.715   1.301   1.114
    1QTZ  O8725 8725  14.444   1.350   0.202
    1QTZ  O8726 8726  15.000   1.256   0.661
    1QTZ  O8727 8727  14.529   1.079   0.823
    1QTZ  O8728 8728  14.761   1.002   0.279
    1QTZ  O8729 8729  14.475   1.251   1.057
    1QTZ  O8730 8730  14.190   1.299   0.177
    1QTZ  O8731 8731  14.778   1.181   0.525
    1QTZ  O8732 8732  14.390   1.138   0.581
    1QTZ  O8733 8733  14.879   1.115   1.024
    1QTZ  O8734 8734  14.620   1.159   0.115
    1QTZ  O8735 8735  14.888   1.098   0.035
    1QTZ  O8736 8736  14.304   1.059   0.992
    1QTZ  O8737 8737  14.599   1.000   0.532
    1QTZ  O8738 8738  14.276   1.364   0.433
    1QTZ  O8739 8739  14.781   1.282   0.817
    1QTZ  O8740 8740  14.360   1.222   0.003
    1QTZ  Si874 8741  15.046   1.163   0.084
    1QTZ  Si874 8742  14.467   1.099   0.985
    1QTZ  Si874 8743  14.747   1.029   0.457
    1QTZ  Si874 8744  14.310   1.284   0.582
    1QTZ  Si874 8745  14.825   1.268   0.988
    1QTZ  Si874 8746  14.517   1.283   0.064
    1QTZ  Si874 8747  14.562   1.344   1.166
    1QTZ  Si874 8748  14.293   1.397   0.265
    1QTZ  Si874 8749  14.837   1.283   0.650
    1QTZ  Si875 8750  14.490   1.029   0.660
    1QTZ  Si875 8751  15.003   1.022   1.087
    1QTZ  Si875 8752  14.735   1.035   0.105
    1QTZ  O8753 8753  14.525   1.049   2.413
    1QTZ  O8754 8754  15.075   1.001   1.534
    1QTZ  O8755 8755  14.773   0.932   2.065
    1QTZ  O8756 8756  14.325   1.385   2.009
    1QTZ  O8757 8757  14.929   1.407   2.476
    1QTZ  O8758 8758  14.672   1.363   1.566
    1QTZ  O8759 8759  14.661   1.346   2.556
    1QTZ  O8760 8760  14.412   1.307   1.598
    1QTZ  O8761 8761  14.950   1.251   2.060
    1QTZ  O8762 8762  14.439   1.114   2.157
    1QTZ  O8763 8763  15.029   1.053   1.258
    1QTZ  O8764 8764  14.769   1.034   1.773
    1QTZ  O8765 8765  14.457   1.305   2.380
    1QTZ  O8766 8766  14.178   1.251   1.483
    1QTZ  O8767 8767  14.716   1.176   2.032
    1QTZ  O8768 8768  14.313   1.136   1.917
    1QTZ  O8769 8769  14.916   1.162   2.565
    1QTZ  O8770 8770  14.596   1.117   1.552
    1QTZ  O8771 8771  14.835   1.051   1.476
    1QTZ  O8772 8772  14.272   1.100   2.388
    1QTZ  O8773 8773  14.550   1.006   1.929
    1QTZ  O8774 8774  14.187   1.327   1.767
    1QTZ  O8775 8775  14.787   1.251   2.311
    1QTZ  O8776 8776  14.521   1.302   1.332
    1QTZ  Si877 8777  14.988   1.094   1.424
    1QTZ  Si877 8778  14.422   1.147   2.325
    1QTZ  Si877 8779  14.713   1.034   1.940
    1QTZ  Si878 8780  14.225   1.276   1.930
    1QTZ  Si878 8781  14.813   1.283   2.485
    1QTZ  Si878 8782  14.548   1.271   1.503
    1QTZ  Si878 8783  14.502   1.411   2.506
    1QTZ  Si878 8784  14.249   1.347   1.605
    1QTZ  Si878 8785  14.801   1.279   2.134
    1QTZ  Si878 8786  14.407   1.033   2.008
    1QTZ  Si878 8787  15.032   1.034   2.527
    1QTZ  Si878 8788  14.725   1.019   1.603
    1QTZ  O8789 8789  14.538   1.500   1.106
    1QTZ  O8790 8790  15.092   1.555   0.211
    1QTZ  O8791 8791  14.834   1.425   0.559
    1QTZ  O8792 8792  14.402   1.884   0.673
    1QTZ  O8793 8793  14.954   1.863   1.038
    1QTZ  O8794 8794  14.633   1.908   0.025
    1QTZ  O8795 8795  14.715   1.800   1.114
    1QTZ  O8796 8796  14.443   1.848   0.201
    1QTZ  O8797 8797  15.001   1.755   0.662
    1QTZ  O8798 8798  14.529   1.578   0.822
    1QTZ  O8799 8799  14.762   1.500   0.279
    1QTZ  O8800 8800  14.475   1.749   1.057
    1QTZ  O8801 8801  14.190   1.797   0.177
    1QTZ  O8802 8802  14.780   1.679   0.525
    1QTZ  O8803 8803  14.390   1.635   0.580
    1QTZ  O8804 8804  14.878   1.612   1.024
    1QTZ  O8805 8805  14.620   1.656   0.115
    1QTZ  O8806 8806  14.888   1.596   0.034
    1QTZ  O8807 8807  14.304   1.556   0.992
    1QTZ  O8808 8808  14.600   1.500   0.531
    1QTZ  O8809 8809  14.276   1.862   0.432
    1QTZ  O8810 8810  14.782   1.780   0.818
    1QTZ  O8811 8811  14.360   1.719   0.003
    1QTZ  Si881 8812  15.046   1.660   0.084
    1QTZ  Si881 8813  14.467   1.597   0.985
    1QTZ  Si881 8814  14.748   1.528   0.457
    1QTZ  Si881 8815  14.309   1.781   0.582
    1QTZ  Si881 8816  14.825   1.766   0.988
    1QTZ  Si881 8817  14.517   1.781   0.063
    1QTZ  Si881 8818  14.561   1.842   1.167
    1QTZ  Si881 8819  14.293   1.895   0.265
    1QTZ  Si882 8820  14.838   1.781   0.651
    1QTZ  Si882 8821  14.491   1.528   0.660
    1QTZ  Si882 8822  15.002   1.519   1.087
    1QTZ  Si882 8823  14.736   1.533   0.105
    1QTZ  O8824 8824  14.524   1.547   2.413
    1QTZ  O8825 8825  15.074   1.499   1.534
    1QTZ  O8826 8826  14.769   1.430   2.065
    1QTZ  O8827 8827  14.327   1.883   2.009
    1QTZ  O8828 8828  14.929   1.905   2.475
    1QTZ  O8829 8829  14.671   1.861   1.567
    1QTZ  O8830 8830  14.661   1.843   2.555
    1QTZ  O8831 8831  14.411   1.805   1.598
    1QTZ  O8832 8832  14.950   1.746   2.058
    1QTZ  O8833 8833  14.438   1.611   2.157
    1QTZ  O8834 8834  15.029   1.550   1.258
    1QTZ  O8835 8835  14.768   1.531   1.773
    1QTZ  O8836 8836  14.457   1.802   2.379
    1QTZ  O8837 8837  14.177   1.748   1.484
    1QTZ  O8838 8838  14.715   1.674   2.031
    1QTZ  O8839 8839  14.310   1.634   1.918
    1QTZ  O8840 8840  14.916   1.659   2.565
    1QTZ  O8841 8841  14.596   1.614   1.552
    1QTZ  O8842 8842  14.835   1.551   1.476
    1QTZ  O8843 8843  14.271   1.598   2.389
    1QTZ  O8844 8844  14.548   1.505   1.928
    1QTZ  O8845 8845  14.186   1.826   1.768
    1QTZ  O8846 8846  14.788   1.749   2.311
    1QTZ  O8847 8847  14.521   1.800   1.333
    1QTZ  Si884 8848  14.988   1.592   1.424
    1QTZ  Si884 8849  14.421   1.645   2.325
    1QTZ  Si885 8850  14.711   1.532   1.940
    1QTZ  Si885 8851  14.224   1.776   1.930
    1QTZ  Si885 8852  14.814   1.781   2.485
    1QTZ  Si885 8853  14.547   1.768   1.503
    1QTZ  Si885 8854  14.503   1.908   2.505
    1QTZ  Si885 8855  14.248   1.845   1.605
    1QTZ  Si885 8856  14.803   1.776   2.133
    1QTZ  Si885 8857  14.405   1.532   2.008
    1QTZ  Si885 8858  15.032   1.531   2.526
    1QTZ  Si885 8859  14.725   1.517   1.602
    1QTZ  O8860 8860  14.537   1.998   1.107
    1QTZ  O8861 8861  15.092   2.052   0.210
    1QTZ  O8862 8862  14.834   1.923   0.559
    1QTZ  O8863 8863  14.405   2.382   0.672
    1QTZ  O8864 8864  14.954   2.361   1.037
    1QTZ  O8865 8865  14.634   2.406   0.025
    1QTZ  O8866 8866  14.715   2.297   1.113
    1QTZ  O8867 8867  14.444   2.346   0.201
    1QTZ  O8868 8868  15.000   2.251   0.661
    1QTZ  O8869 8869  14.529   2.075   0.822
    1QTZ  O8870 8870  14.761   1.997   0.279
    1QTZ  O8871 8871  14.475   2.246   1.056
    1QTZ  O8872 8872  14.191   2.295   0.177
    1QTZ  O8873 8873  14.777   2.177   0.525
    1QTZ  O8874 8874  14.390   2.133   0.580
    1QTZ  O8875 8875  14.879   2.110   1.023
    1QTZ  O8876 8876  14.620   2.154   0.114
    1QTZ  O8877 8877  14.888   2.093   0.034
    1QTZ  O8878 8878  14.304   2.054   0.992
    1QTZ  O8879 8879  14.599   1.995   0.531
    1QTZ  O8880 8880  14.277   2.359   0.432
    1QTZ  O8881 8881  14.781   2.278   0.817
    1QTZ  O8882 8882  14.360   2.217   0.003
    1QTZ  Si888 8883  15.046   2.158   0.084
    1QTZ  Si888 8884  14.467   2.094   0.985
    1QTZ  Si888 8885  14.747   2.025   0.456
    1QTZ  Si888 8886  14.310   2.280   0.582
    1QTZ  Si888 8887  14.825   2.264   0.987
    1QTZ  Si888 8888  14.517   2.279   0.063
    1QTZ  Si888 8889  14.562   2.339   1.166
    1QTZ  Si889 8890  14.294   2.393   0.264
    1QTZ  Si889 8891  14.837   2.278   0.650
    1QTZ  Si889 8892  14.490   2.025   0.660
    1QTZ  Si889 8893  15.003   2.017   1.087
    1QTZ  Si889 8894  14.736   2.030   0.105
    1QTZ  O8895 8895  14.525   2.045   2.413
    1QTZ  O8896 8896  15.075   1.997   1.533
    1QTZ  O8897 8897  14.773   1.928   2.064
    1QTZ  O8898 8898  14.326   2.380   2.009
    1QTZ  O8899 8899  14.929   2.403   2.475
    1QTZ  O8900 8900  14.672   2.359   1.566
    1QTZ  O8901 8901  14.661   2.341   2.556
    1QTZ  O8902 8902  14.412   2.303   1.597
    1QTZ  O8903 8903  14.950   2.246   2.059
    1QTZ  O8904 8904  14.440   2.109   2.157
    1QTZ  O8905 8905  15.029   2.049   1.257
    1QTZ  O8906 8906  14.769   2.029   1.772
    1QTZ  O8907 8907  14.458   2.300   2.379
    1QTZ  O8908 8908  14.178   2.246   1.483
    1QTZ  O8909 8909  14.716   2.172   2.031
    1QTZ  O8910 8910  14.312   2.131   1.917
    1QTZ  O8911 8911  14.916   2.157   2.565
    1QTZ  O8912 8912  14.596   2.112   1.551
    1QTZ  O8913 8913  14.835   2.047   1.476
    1QTZ  O8914 8914  14.272   2.096   2.388
    1QTZ  O8915 8915  14.550   2.002   1.928
    1QTZ  O8916 8916  14.187   2.323   1.767
    1QTZ  O8917 8917  14.788   2.247   2.311
    1QTZ  O8918 8918  14.521   2.298   1.332
    1QTZ  Si891 8919  14.989   2.090   1.423
    1QTZ  Si892 8920  14.422   2.143   2.325
    1QTZ  Si892 8921  14.713   2.029   1.939
    1QTZ  Si892 8922  14.225   2.272   1.929
    1QTZ  Si892 8923  14.813   2.279   2.485
    1QTZ  Si892 8924  14.548   2.266   1.503
    1QTZ  Si892 8925  14.503   2.406   2.506
    1QTZ  Si892 8926  14.249   2.343   1.604
    1QTZ  Si892 8927  14.802   2.274   2.133
    1QTZ  Si892 8928  14.407   2.029   2.008
    1QTZ  Si892 8929  15.032   2.029   2.526
    1QTZ  Si893 8930  14.725   2.015   1.602
    1QTZ  O8931 8931  14.538   2.496   1.106
    1QTZ  O8932 8932  15.092   2.550   0.210
    1QTZ  O8933 8933  14.834   2.421   0.558
    1QTZ  O8934 8934  14.403   2.880   0.672
    1QTZ  O8935 8935  14.954   2.859   1.038
    1QTZ  O8936 8936  14.633   2.904   0.025
    1QTZ  O8937 8937  14.715   2.795   1.113
    1QTZ  O8938 8938  14.443   2.843   0.201
    1QTZ  O8939 8939  15.001   2.750   0.662
    1QTZ  O8940 8940  14.530   2.574   0.822
    1QTZ  O8941 8941  14.762   2.496   0.278
    1QTZ  O8942 8942  14.475   2.744   1.056
    1QTZ  O8943 8943  14.190   2.792   0.176
    1QTZ  O8944 8944  14.780   2.675   0.525
    1QTZ  O8945 8945  14.390   2.631   0.580
    1QTZ  O8946 8946  14.878   2.608   1.024
    1QTZ  O8947 8947  14.620   2.652   0.114
    1QTZ  O8948 8948  14.888   2.591   0.034
    1QTZ  O8949 8949  14.304   2.552   0.992
    1QTZ  O8950 8950  14.600   2.496   0.530
    1QTZ  O8951 8951  14.276   2.857   0.432
    1QTZ  O8952 8952  14.782   2.776   0.817
    1QTZ  O8953 8953  14.360   2.715   0.003
    1QTZ  Si895 8954  15.046   2.656   0.084
    1QTZ  Si895 8955  14.467   2.592   0.984
    1QTZ  Si895 8956  14.748   2.523   0.456
    1QTZ  Si895 8957  14.309   2.777   0.581
    1QTZ  Si895 8958  14.825   2.762   0.988
    1QTZ  Si895 8959  14.517   2.776   0.063
    1QTZ  Si896 8960  14.561   2.837   1.166
    1QTZ  Si896 8961  14.293   2.891   0.264
    1QTZ  Si896 8962  14.838   2.776   0.650
    1QTZ  Si896 8963  14.491   2.524   0.659
    1QTZ  Si896 8964  15.002   2.515   1.087
    1QTZ  Si896 8965  14.736   2.528   0.104
    1QTZ  O8966 8966  14.525   2.543   2.413
    1QTZ  O8967 8967  15.074   2.495   1.533
    1QTZ  O8968 8968  14.770   2.426   2.065
    1QTZ  O8969 8969  14.326   2.878   2.009
    1QTZ  O8970 8970  14.929   2.900   2.475
    1QTZ  O8971 8971  14.671   2.857   1.566
    1QTZ  O8972 8972  14.661   2.839   2.555
    1QTZ  O8973 8973  14.412   2.800   1.597
    1QTZ  O8974 8974  14.950   2.742   2.058
    1QTZ  O8975 8975  14.439   2.607   2.157
    1QTZ  O8976 8976  15.029   2.546   1.257
    1QTZ  O8977 8977  14.768   2.527   1.772
    1QTZ  O8978 8978  14.458   2.798   2.379
    1QTZ  O8979 8979  14.178   2.744   1.483
    1QTZ  O8980 8980  14.715   2.670   2.031
    1QTZ  O8981 8981  14.311   2.629   1.917
    1QTZ  O8982 8982  14.916   2.655   2.564
    1QTZ  O8983 8983  14.596   2.610   1.552
    1QTZ  O8984 8984  14.835   2.546   1.476
    1QTZ  O8985 8985  14.271   2.594   2.388
    1QTZ  O8986 8986  14.549   2.500   1.928
    1QTZ  O8987 8987  14.186   2.821   1.767
    1QTZ  O8988 8988  14.788   2.744   2.310
    1QTZ  O8989 8989  14.521   2.795   1.332
    1QTZ  Si899 8990  14.989   2.588   1.423
    1QTZ  Si899 8991  14.422   2.641   2.325
    1QTZ  Si899 8992  14.712   2.527   1.939
    1QTZ  Si899 8993  14.225   2.771   1.930
    1QTZ  Si899 8994  14.814   2.776   2.484
    1QTZ  Si899 8995  14.547   2.764   1.503
    1QTZ  Si899 8996  14.503   2.904   2.505
    1QTZ  Si899 8997  14.249   2.840   1.605
    1QTZ  Si899 8998  14.802   2.771   2.133
    1QTZ  Si899 8999  14.406   2.527   2.007
    1QTZ  Si900 9000  15.032   2.527   2.526
    1QTZ  Si900 9001  14.725   2.513   1.602
    1QTZ  O9002 9002  14.537   2.994   1.106
    1QTZ  O9003 9003  15.092   3.048   0.210
    1QTZ  O9004 9004  14.834   2.919   0.559
    1QTZ  O9005 9005  14.404   3.377   0.672
    1QTZ  O9006 9006  14.954   3.357   1.038
    1QTZ  O9007 9007  14.633   3.402   0.025
    1QTZ  O9008 9008  14.715   3.292   1.114
    1QTZ  O9009 9009  14.444   3.341   0.201
    1QTZ  O9010 9010  15.000   3.247   0.661
    1QTZ  O9011 9011  14.529   3.071   0.822
    1QTZ  O9012 9012  14.761   2.993   0.279
    1QTZ  O9013 9013  14.475   3.242   1.056
    1QTZ  O9014 9014  14.190   3.290   0.176
    1QTZ  O9015 9015  14.778   3.172   0.525
    1QTZ  O9016 9016  14.390   3.129   0.580
    1QTZ  O9017 9017  14.879   3.106   1.023
    1QTZ  O9018 9018  14.620   3.150   0.114
    1QTZ  O9019 9019  14.888   3.089   0.034
    1QTZ  O9020 9020  14.304   3.050   0.992
    1QTZ  O9021 9021  14.600   2.991   0.531
    1QTZ  O9022 9022  14.276   3.355   0.432
    1QTZ  O9023 9023  14.781   3.274   0.817
    1QTZ  O9024 9024  14.360   3.213   0.002
    1QTZ  Si902 9025  15.046   3.154   0.084
    1QTZ  Si902 9026  14.467   3.090   0.985
    1QTZ  Si902 9027  14.747   3.020   0.456
    1QTZ  Si902 9028  14.310   3.275   0.582
    1QTZ  Si902 9029  14.825   3.259   0.988
    1QTZ  Si903 9030  14.517   3.274   0.063
    1QTZ  Si903 9031  14.562   3.335   1.166
    1QTZ  Si903 9032  14.293   3.388   0.264
    1QTZ  Si903 9033  14.837   3.274   0.650
    1QTZ  Si903 9034  14.490   3.020   0.660
    1QTZ  Si903 9035  15.003   3.013   1.086
    1QTZ  Si903 9036  14.736   3.026   0.105
    1QTZ  O9037 9037  14.525   3.040   2.413
    1QTZ  O9038 9038  15.075   2.992   1.533
    1QTZ  O9039 9039  14.772   2.923   2.064
    1QTZ  O9040 9040  14.326   3.376   2.009
    1QTZ  O9041 9041  14.929   3.398   2.475
    1QTZ  O9042 9042  14.671   3.354   1.567
    1QTZ  O9043 9043  14.661   3.336   2.556
    1QTZ  O9044 9044  14.412   3.298   1.597
    1QTZ  O9045 9045  14.950   3.240   2.059
    1QTZ  O9046 9046  14.439   3.105   2.157
    1QTZ  O9047 9047  15.029   3.044   1.257
    1QTZ  O9048 9048  14.769   3.025   1.772
    1QTZ  O9049 9049  14.458   3.296   2.379
    1QTZ  O9050 9050  14.178   3.242   1.483
    1QTZ  O9051 9051  14.716   3.167   2.031
    1QTZ  O9052 9052  14.311   3.127   1.917
    1QTZ  O9053 9053  14.916   3.152   2.564
    1QTZ  O9054 9054  14.596   3.107   1.551
    1QTZ  O9055 9055  14.835   3.043   1.476
    1QTZ  O9056 9056  14.272   3.091   2.388
    1QTZ  O9057 9057  14.549   2.998   1.928
    1QTZ  O9058 9058  14.187   3.319   1.767
    1QTZ  O9059 9059  14.788   3.242   2.311
    1QTZ  O9060 9060  14.521   3.293   1.332
    1QTZ  Si906 9061  14.989   3.085   1.423
    1QTZ  Si906 9062  14.422   3.139   2.324
    1QTZ  Si906 9063  14.712   3.025   1.939
    1QTZ  Si906 9064  14.225   3.268   1.930
    1QTZ  Si906 9065  14.814   3.274   2.485
    1QTZ  Si906 9066  14.547   3.262   1.503
    1QTZ  Si906 9067  14.503   3.401   2.506
    1QTZ  Si906 9068  14.249   3.338   1.605
    1QTZ  Si906 9069  14.803   3.269   2.133
    1QTZ  Si907 9070  14.406   3.025   2.007
    1QTZ  Si907 9071  15.032   3.025   2.526
    1QTZ  Si907 9072  14.725   3.010   1.602
    1QTZ  O9073 9073  15.372   0.007   1.106
    1QTZ  O9074 9074  15.926   0.061   0.210
    1QTZ  O9075 9075  15.668   3.417   0.558
    1QTZ  O9076 9076  15.238   0.391   0.672
    1QTZ  O9077 9077  15.788   0.370   1.038
    1QTZ  O9078 9078  15.467   0.416   0.025
    1QTZ  O9079 9079  15.549   0.306   1.114
    1QTZ  O9080 9080  15.278   0.355   0.201
    1QTZ  O9081 9081  15.834   0.261   0.661
    1QTZ  O9082 9082  15.363   0.084   0.822
    1QTZ  O9083 9083  15.595   0.007   0.279
    1QTZ  O9084 9084  15.309   0.255   1.057
    1QTZ  O9085 9085  15.024   0.304   0.177
    1QTZ  O9086 9086  15.612   0.186   0.525
    1QTZ  O9087 9087  15.224   0.142   0.580
    1QTZ  O9088 9088  15.713   0.119   1.023
    1QTZ  O9089 9089  15.454   0.163   0.114
    1QTZ  O9090 9090  15.722   0.102   0.034
    1QTZ  O9091 9091  15.138   0.063   0.992
    1QTZ  O9092 9092  15.434   0.005   0.531
    1QTZ  O9093 9093  15.110   0.368   0.433
    1QTZ  O9094 9094  15.615   0.287   0.817
    1QTZ  O9095 9095  15.194   0.227   0.003
    1QTZ  Si909 9096  15.880   0.167   0.084
    1QTZ  Si909 9097  15.301   0.103   0.985
    1QTZ  Si909 9098  15.581   0.034   0.456
    1QTZ  Si909 9099  15.144   0.288   0.582
    1QTZ  Si910 9100  15.659   0.273   0.988
    1QTZ  Si910 9101  15.351   0.288   0.063
    1QTZ  Si910 9102  15.396   0.348   1.166
    1QTZ  Si910 9103  15.127   0.402   0.265
    1QTZ  Si910 9104  15.671   0.288   0.650
    1QTZ  Si910 9105  15.325   0.034   0.660
    1QTZ  Si910 9106  15.837   0.026   1.086
    1QTZ  Si910 9107  15.570   0.040   0.105
    1QTZ  O9108 9108  15.359   0.054   2.413
    1QTZ  O9109 9109  15.909   0.006   1.533
    1QTZ  O9110 9110  15.605   3.421   2.064
    1QTZ  O9111 9111  15.161   0.390   2.010
    1QTZ  O9112 9112  15.763   0.412   2.475
    1QTZ  O9113 9113  15.505   0.368   1.567
    1QTZ  O9114 9114  15.495   0.350   2.556
    1QTZ  O9115 9115  15.246   0.311   1.598
    1QTZ  O9116 9116  15.784   0.253   2.058
    1QTZ  O9117 9117  15.273   0.118   2.157
    1QTZ  O9118 9118  15.863   0.057   1.257
    1QTZ  O9119 9119  15.603   0.038   1.772
    1QTZ  O9120 9120  15.292   0.309   2.379
    1QTZ  O9121 9121  15.012   0.255   1.484
    1QTZ  O9122 9122  15.550   0.181   2.031
    1QTZ  O9123 9123  15.145   0.141   1.918
    1QTZ  O9124 9124  15.750   0.166   2.564
    1QTZ  O9125 9125  15.430   0.121   1.551
    1QTZ  O9126 9126  15.669   0.057   1.476
    1QTZ  O9127 9127  15.106   0.105   2.388
    1QTZ  O9128 9128  15.383   0.012   1.928
    1QTZ  O9129 9129  15.020   0.333   1.768
    1QTZ  O9130 9130  15.622   0.255   2.311
    1QTZ  O9131 9131  15.355   0.307   1.332
    1QTZ  Si913 9132  15.823   0.099   1.423
    1QTZ  Si913 9133  15.256   0.152   2.325
    1QTZ  Si913 9134  15.546   0.039   1.939
    1QTZ  Si913 9135  15.059   0.282   1.930
    1QTZ  Si913 9136  15.648   0.288   2.485
    1QTZ  Si913 9137  15.381   0.275   1.503
    1QTZ  Si913 9138  15.337   0.415   2.506
    1QTZ  Si913 9139  15.083   0.352   1.605
    1QTZ  Si914 9140  15.637   0.283   2.133
    1QTZ  Si914 9141  15.240   0.039   2.008
    1QTZ  Si914 9142  15.867   0.038   2.526
    1QTZ  Si914 9143  15.559   0.024   1.602
    1QTZ  O9144 9144  15.372   0.505   1.106
    1QTZ  O9145 9145  15.926   0.559   0.210
    1QTZ  O9146 9146  15.668   0.430   0.559
    1QTZ  O9147 9147  15.238   0.889   0.673
    1QTZ  O9148 9148  15.788   0.868   1.038
    1QTZ  O9149 9149  15.467   0.913   0.026
    1QTZ  O9150 9150  15.549   0.804   1.114
    1QTZ  O9151 9151  15.277   0.853   0.202
    1QTZ  O9152 9152  15.834   0.758   0.661
    1QTZ  O9153 9153  15.363   0.582   0.822
    1QTZ  O9154 9154  15.595   0.505   0.279
    1QTZ  O9155 9155  15.309   0.753   1.057
    1QTZ  O9156 9156  15.024   0.802   0.177
    1QTZ  O9157 9157  15.612   0.684   0.525
    1QTZ  O9158 9158  15.224   0.640   0.581
    1QTZ  O9159 9159  15.713   0.617   1.023
    1QTZ  O9160 9160  15.454   0.661   0.114
    1QTZ  O9161 9161  15.722   0.600   0.034
    1QTZ  O9162 9162  15.138   0.561   0.992
    1QTZ  O9163 9163  15.433   0.503   0.531
    1QTZ  O9164 9164  15.110   0.866   0.433
    1QTZ  O9165 9165  15.615   0.785   0.817
    1QTZ  O9166 9166  15.194   0.725   0.003
    1QTZ  Si916 9167  15.880   0.665   0.084
    1QTZ  Si916 9168  15.301   0.601   0.985
    1QTZ  Si916 9169  15.581   0.532   0.456
    1QTZ  Si917 9170  15.144   0.786   0.582
    1QTZ  Si917 9171  15.659   0.771   0.988
    1QTZ  Si917 9172  15.351   0.786   0.064
    1QTZ  Si917 9173  15.396   0.846   1.167
    1QTZ  Si917 9174  15.127   0.900   0.265
    1QTZ  Si917 9175  15.671   0.785   0.650
    1QTZ  Si917 9176  15.324   0.532   0.660
    1QTZ  Si917 9177  15.837   0.524   1.087
    1QTZ  Si917 9178  15.570   0.538   0.105
    1QTZ  O9179 9179  15.359   0.552   2.413
    1QTZ  O9180 9180  15.909   0.504   1.533
    1QTZ  O9181 9181  15.607   0.434   2.064
    1QTZ  O9182 9182  15.160   0.887   2.010
    1QTZ  O9183 9183  15.763   0.909   2.476
    1QTZ  O9184 9184  15.505   0.866   1.566
    1QTZ  O9185 9185  15.495   0.848   2.556
    1QTZ  O9186 9186  15.246   0.809   1.598
    1QTZ  O9187 9187  15.784   0.753   2.060
    1QTZ  O9188 9188  15.274   0.616   2.157
    1QTZ  O9189 9189  15.863   0.556   1.257
    1QTZ  O9190 9190  15.603   0.536   1.773
    1QTZ  O9191 9191  15.291   0.807   2.380
    1QTZ  O9192 9192  15.012   0.753   1.484
    1QTZ  O9193 9193  15.550   0.679   2.031
    1QTZ  O9194 9194  15.147   0.638   1.918
    1QTZ  O9195 9195  15.750   0.664   2.565
    1QTZ  O9196 9196  15.430   0.619   1.552
    1QTZ  O9197 9197  15.669   0.554   1.476
    1QTZ  O9198 9198  15.106   0.602   2.389
    1QTZ  O9199 9199  15.384   0.508   1.929
    1QTZ  O9200 9200  15.021   0.830   1.768
    1QTZ  O9201 9201  15.621   0.753   2.311
    1QTZ  O9202 9202  15.355   0.804   1.332
    1QTZ  Si920 9203  15.823   0.597   1.423
    1QTZ  Si920 9204  15.256   0.650   2.325
    1QTZ  Si920 9205  15.547   0.536   1.940
    1QTZ  Si920 9206  15.059   0.779   1.930
    1QTZ  Si920 9207  15.647   0.786   2.485
    1QTZ  Si920 9208  15.382   0.773   1.503
    1QTZ  Si920 9209  15.337   0.913   2.506
    1QTZ  Si921 9210  15.083   0.849   1.605
    1QTZ  Si921 9211  15.635   0.781   2.134
    1QTZ  Si921 9212  15.241   0.536   2.008
    1QTZ  Si921 9213  15.866   0.536   2.526
    1QTZ  Si921 9214  15.559   0.522   1.602
    1QTZ  O9215 9215  15.372   1.003   1.107
    1QTZ  O9216 9216  15.926   1.057   0.210
    1QTZ  O9217 9217  15.668   0.928   0.559
    1QTZ  O9218 9218  15.237   1.386   0.673
    1QTZ  O9219 9219  15.788   1.366   1.038
    1QTZ  O9220 9220  15.467   1.411   0.025
    1QTZ  O9221 9221  15.549   1.302   1.114
    1QTZ  O9222 9222  15.277   1.350   0.202
    1QTZ  O9223 9223  15.835   1.257   0.662
    1QTZ  O9224 9224  15.363   1.080   0.823
    1QTZ  O9225 9225  15.596   1.003   0.279
    1QTZ  O9226 9226  15.309   1.251   1.057
    1QTZ  O9227 9227  15.024   1.299   0.177
    1QTZ  O9228 9228  15.613   1.182   0.526
    1QTZ  O9229 9229  15.224   1.138   0.580
    1QTZ  O9230 9230  15.712   1.115   1.024
    1QTZ  O9231 9231  15.454   1.159   0.115
    1QTZ  O9232 9232  15.722   1.098   0.034
    1QTZ  O9233 9233  15.138   1.058   0.993
    1QTZ  O9234 9234  15.434   1.002   0.531
    1QTZ  O9235 9235  15.110   1.364   0.433
    1QTZ  O9236 9236  15.615   1.283   0.818
    1QTZ  O9237 9237  15.194   1.222   0.003
    1QTZ  Si923 9238  15.880   1.163   0.084
    1QTZ  Si923 9239  15.301   1.099   0.985
    1QTZ  Si924 9240  15.582   1.030   0.457
    1QTZ  Si924 9241  15.143   1.284   0.582
    1QTZ  Si924 9242  15.659   1.269   0.988
    1QTZ  Si924 9243  15.351   1.283   0.064
    1QTZ  Si924 9244  15.395   1.344   1.167
    1QTZ  Si924 9245  15.127   1.397   0.265
    1QTZ  Si924 9246  15.672   1.283   0.651
    1QTZ  Si924 9247  15.325   1.030   0.660
    1QTZ  Si924 9248  15.836   1.022   1.087
    1QTZ  Si924 9249  15.570   1.035   0.105
    1QTZ  O9250 9250  15.358   1.049   2.413
    1QTZ  O9251 9251  15.908   1.002   1.534
    1QTZ  O9252 9252  15.603   0.933   2.065
    1QTZ  O9253 9253  15.161   1.385   2.010
    1QTZ  O9254 9254  15.763   1.407   2.476
    1QTZ  O9255 9255  15.505   1.363   1.567
    1QTZ  O9256 9256  15.495   1.346   2.556
    1QTZ  O9257 9257  15.245   1.307   1.598
    1QTZ  O9258 9258  15.784   1.248   2.058
    1QTZ  O9259 9259  15.273   1.114   2.158
    1QTZ  O9260 9260  15.863   1.052   1.258
    1QTZ  O9261 9261  15.602   1.034   1.773
    1QTZ  O9262 9262  15.292   1.305   2.380
    1QTZ  O9263 9263  15.011   1.251   1.484
    1QTZ  O9264 9264  15.549   1.177   2.031
    1QTZ  O9265 9265  15.143   1.136   1.918
    1QTZ  O9266 9266  15.750   1.161   2.565
    1QTZ  O9267 9267  15.430   1.117   1.552
    1QTZ  O9268 9268  15.669   1.053   1.476
    1QTZ  O9269 9269  15.105   1.101   2.389
    1QTZ  O9270 9270  15.382   1.008   1.928
    1QTZ  O9271 9271  15.020   1.329   1.768
    1QTZ  O9272 9272  15.622   1.251   2.311
    1QTZ  O9273 9273  15.354   1.302   1.333
    1QTZ  Si927 9274  15.822   1.094   1.423
    1QTZ  Si927 9275  15.256   1.148   2.325
    1QTZ  Si927 9276  15.545   1.034   1.940
    1QTZ  Si927 9277  15.058   1.278   1.931
    1QTZ  Si927 9278  15.648   1.283   2.485
    1QTZ  Si927 9279  15.381   1.271   1.504
    1QTZ  Si928 9280  15.337   1.411   2.506
    1QTZ  Si928 9281  15.082   1.347   1.606
    1QTZ  Si928 9282  15.637   1.278   2.133
    1QTZ  Si928 9283  15.239   1.034   2.008
    1QTZ  Si928 9284  15.866   1.034   2.526
    1QTZ  Si928 9285  15.559   1.020   1.602
    1QTZ  O9286 9286  15.372   1.500   1.107
    1QTZ  O9287 9287  15.926   1.555   0.211
    1QTZ  O9288 9288  15.668   1.426   0.559
    1QTZ  O9289 9289  15.239   1.884   0.672
    1QTZ  O9290 9290  15.788   1.863   1.037
    1QTZ  O9291 9291  15.468   1.909   0.025
    1QTZ  O9292 9292  15.549   1.799   1.114
    1QTZ  O9293 9293  15.278   1.848   0.201
    1QTZ  O9294 9294  15.834   1.753   0.661
    1QTZ  O9295 9295  15.363   1.577   0.823
    1QTZ  O9296 9296  15.595   1.500   0.279
    1QTZ  O9297 9297  15.309   1.749   1.057
    1QTZ  O9298 9298  15.025   1.797   0.177
    1QTZ  O9299 9299  15.611   1.679   0.525
    1QTZ  O9300 9300  15.224   1.635   0.581
    1QTZ  O9301 9301  15.713   1.612   1.023
    1QTZ  O9302 9302  15.454   1.657   0.115
    1QTZ  O9303 9303  15.722   1.595   0.034
    1QTZ  O9304 9304  15.138   1.557   0.992
    1QTZ  O9305 9305  15.433   1.498   0.532
    1QTZ  O9306 9306  15.111   1.862   0.433
    1QTZ  O9307 9307  15.615   1.780   0.817
    1QTZ  O9308 9308  15.194   1.720   0.003
    1QTZ  Si930 9309  15.880   1.660   0.084
    1QTZ  Si931 9310  15.301   1.597   0.985
    1QTZ  Si931 9311  15.581   1.527   0.457
    1QTZ  Si931 9312  15.144   1.782   0.582
    1QTZ  Si931 9313  15.659   1.766   0.987
    1QTZ  Si931 9314  15.351   1.781   0.064
    1QTZ  Si931 9315  15.396   1.842   1.166
    1QTZ  Si931 9316  15.128   1.895   0.265
    1QTZ  Si931 9317  15.671   1.781   0.650
    1QTZ  Si931 9318  15.324   1.527   0.660
    1QTZ  Si931 9319  15.837   1.520   1.087
    1QTZ  Si932 9320  15.570   1.533   0.105
    1QTZ  O9321 9321  15.359   1.547   2.413
    1QTZ  O9322 9322  15.909   1.499   1.533
    1QTZ  O9323 9323  15.607   1.430   2.064
    1QTZ  O9324 9324  15.160   1.883   2.009
    1QTZ  O9325 9325  15.763   1.905   2.476
    1QTZ  O9326 9326  15.506   1.861   1.566
    1QTZ  O9327 9327  15.495   1.844   2.556
    1QTZ  O9328 9328  15.246   1.805   1.598
    1QTZ  O9329 9329  15.784   1.749   2.060
    1QTZ  O9330 9330  15.274   1.612   2.157
    1QTZ  O9331 9331  15.863   1.551   1.258
    1QTZ  O9332 9332  15.603   1.532   1.773
    1QTZ  O9333 9333  15.292   1.803   2.380
    1QTZ  O9334 9334  15.013   1.749   1.483
    1QTZ  O9335 9335  15.550   1.674   2.031
    1QTZ  O9336 9336  15.147   1.634   1.917
    1QTZ  O9337 9337  15.750   1.659   2.565
    1QTZ  O9338 9338  15.430   1.614   1.552
    1QTZ  O9339 9339  15.669   1.549   1.476
    1QTZ  O9340 9340  15.106   1.598   2.388
    1QTZ  O9341 9341  15.384   1.504   1.929
    1QTZ  O9342 9342  15.021   1.825   1.767
    1QTZ  O9343 9343  15.621   1.749   2.311
    1QTZ  O9344 9344  15.355   1.800   1.332
    1QTZ  Si934 9345  15.822   1.592   1.424
    1QTZ  Si934 9346  15.256   1.645   2.325
    1QTZ  Si934 9347  15.547   1.532   1.940
    1QTZ  Si934 9348  15.060   1.775   1.930
    1QTZ  Si934 9349  15.648   1.781   2.485
    1QTZ  Si935 9350  15.382   1.768   1.503
    1QTZ  Si935 9351  15.337   1.909   2.506
    1QTZ  Si935 9352  15.083   1.845   1.605
    1QTZ  Si935 9353  15.636   1.777   2.134
    1QTZ  Si935 9354  15.241   1.532   2.008
    1QTZ  Si935 9355  15.866   1.532   2.527
    1QTZ  Si935 9356  15.559   1.517   1.602
    1QTZ  O9357 9357  15.372   1.998   1.106
    1QTZ  O9358 9358  15.926   2.052   0.210
    1QTZ  O9359 9359  15.668   1.923   0.559
    1QTZ  O9360 9360  15.237   2.382   0.672
    1QTZ  O9361 9361  15.788   2.361   1.038
    1QTZ  O9362 9362  15.467   2.406   0.025
    1QTZ  O9363 9363  15.549   2.297   1.114
    1QTZ  O9364 9364  15.278   2.345   0.201
    1QTZ  O9365 9365  15.836   2.253   0.662
    1QTZ  O9366 9366  15.364   2.076   0.822
    1QTZ  O9367 9367  15.596   1.998   0.279
    1QTZ  O9368 9368  15.309   2.247   1.056
    1QTZ  O9369 9369  15.024   2.295   0.177
    1QTZ  O9370 9370  15.614   2.177   0.525
    1QTZ  O9371 9371  15.224   2.133   0.580
    1QTZ  O9372 9372  15.712   2.110   1.024
    1QTZ  O9373 9373  15.454   2.154   0.114
    1QTZ  O9374 9374  15.722   2.093   0.034
    1QTZ  O9375 9375  15.138   2.054   0.992
    1QTZ  O9376 9376  15.434   1.998   0.530
    1QTZ  O9377 9377  15.110   2.359   0.432
    1QTZ  O9378 9378  15.616   2.278   0.817
    1QTZ  O9379 9379  15.194   2.217   0.003
    1QTZ  Si938 9380  15.881   2.158   0.084
    1QTZ  Si938 9381  15.301   2.095   0.985
    1QTZ  Si938 9382  15.582   2.026   0.456
    1QTZ  Si938 9383  15.143   2.279   0.582
    1QTZ  Si938 9384  15.659   2.264   0.988
    1QTZ  Si938 9385  15.351   2.279   0.063
    1QTZ  Si938 9386  15.396   2.339   1.166
    1QTZ  Si938 9387  15.127   2.393   0.264
    1QTZ  Si938 9388  15.673   2.279   0.650
    1QTZ  Si938 9389  15.325   2.026   0.659
    1QTZ  Si939 9390  15.837   2.017   1.087
    1QTZ  Si939 9391  15.570   2.031   0.105
    1QTZ  O9392 9392  15.359   2.045   2.413
    1QTZ  O9393 9393  15.908   1.997   1.534
    1QTZ  O9394 9394  15.604   1.928   2.065
    1QTZ  O9395 9395  15.161   2.381   2.009
    1QTZ  O9396 9396  15.763   2.403   2.475
    1QTZ  O9397 9397  15.505   2.359   1.566
    1QTZ  O9398 9398  15.496   2.341   2.555
    1QTZ  O9399 9399  15.246   2.303   1.598
    1QTZ  O9400 9400  15.784   2.244   2.058
    1QTZ  O9401 9401  15.273   2.109   2.157
    1QTZ  O9402 9402  15.863   2.048   1.257
    1QTZ  O9403 9403  15.602   2.029   1.773
    1QTZ  O9404 9404  15.292   2.300   2.379
    1QTZ  O9405 9405  15.012   2.246   1.484
    1QTZ  O9406 9406  15.549   2.172   2.031
    1QTZ  O9407 9407  15.144   2.132   1.918
    1QTZ  O9408 9408  15.751   2.157   2.564
    1QTZ  O9409 9409  15.430   2.112   1.552
    1QTZ  O9410 9410  15.669   2.048   1.476
    1QTZ  O9411 9411  15.106   2.096   2.389
    1QTZ  O9412 9412  15.383   2.003   1.928
    1QTZ  O9413 9413  15.020   2.324   1.768
    1QTZ  O9414 9414  15.622   2.246   2.310
    1QTZ  O9415 9415  15.355   2.298   1.332
    1QTZ  Si941 9416  15.823   2.090   1.423
    1QTZ  Si941 9417  15.256   2.143   2.325
    1QTZ  Si941 9418  15.545   2.030   1.939
    1QTZ  Si941 9419  15.059   2.273   1.930
    1QTZ  Si942 9420  15.648   2.279   2.484
    1QTZ  Si942 9421  15.381   2.266   1.503
    1QTZ  Si942 9422  15.337   2.406   2.505
    1QTZ  Si942 9423  15.083   2.343   1.605
    1QTZ  Si942 9424  15.637   2.274   2.133
    1QTZ  Si942 9425  15.239   2.029   2.008
    1QTZ  Si942 9426  15.867   2.029   2.526
    1QTZ  Si942 9427  15.559   2.015   1.602
    1QTZ  O9428 9428  15.372   2.496   1.106
    1QTZ  O9429 9429  15.926   2.550   0.210
    1QTZ  O9430 9430  15.668   2.421   0.559
    1QTZ  O9431 9431  15.239   2.880   0.672
    1QTZ  O9432 9432  15.788   2.859   1.037
    1QTZ  O9433 9433  15.468   2.904   0.025
    1QTZ  O9434 9434  15.549   2.794   1.113
    1QTZ  O9435 9435  15.278   2.843   0.201
    1QTZ  O9436 9436  15.834   2.749   0.661
    1QTZ  O9437 9437  15.363   2.573   0.822
    1QTZ  O9438 9438  15.595   2.495   0.279
    1QTZ  O9439 9439  15.310   2.744   1.056
    1QTZ  O9440 9440  15.025   2.792   0.176
    1QTZ  O9441 9441  15.612   2.674   0.525
    1QTZ  O9442 9442  15.224   2.631   0.580
    1QTZ  O9443 9443  15.713   2.608   1.023
    1QTZ  O9444 9444  15.454   2.652   0.114
    1QTZ  O9445 9445  15.722   2.591   0.034
    1QTZ  O9446 9446  15.138   2.552   0.992
    1QTZ  O9447 9447  15.434   2.493   0.531
    1QTZ  O9448 9448  15.111   2.857   0.432
    1QTZ  O9449 9449  15.615   2.776   0.817
    1QTZ  O9450 9450  15.194   2.715   0.002
    1QTZ  Si945 9451  15.880   2.656   0.084
    1QTZ  Si945 9452  15.301   2.592   0.985
    1QTZ  Si945 9453  15.581   2.523   0.456
    1QTZ  Si945 9454  15.144   2.777   0.582
    1QTZ  Si945 9455  15.659   2.762   0.987
    1QTZ  Si945 9456  15.351   2.777   0.063
    1QTZ  Si945 9457  15.396   2.837   1.166
    1QTZ  Si945 9458  15.128   2.891   0.264
    1QTZ  Si945 9459  15.671   2.776   0.650
    1QTZ  Si946 9460  15.324   2.522   0.660
    1QTZ  Si946 9461  15.837   2.515   1.086
    1QTZ  Si946 9462  15.570   2.528   0.105
    1QTZ  O9463 9463  15.359   2.543   2.413
    1QTZ  O9464 9464  15.909   2.495   1.533
    1QTZ  O9465 9465  15.607   2.426   2.064
    1QTZ  O9466 9466  15.160   2.878   2.009
    1QTZ  O9467 9467  15.763   2.900   2.475
    1QTZ  O9468 9468  15.506   2.856   1.566
    1QTZ  O9469 9469  15.495   2.839   2.555
    1QTZ  O9470 9470  15.246   2.800   1.597
    1QTZ  O9471 9471  15.785   2.743   2.059
    1QTZ  O9472 9472  15.274   2.607   2.157
    1QTZ  O9473 9473  15.864   2.546   1.257
    1QTZ  O9474 9474  15.603   2.527   1.772
    1QTZ  O9475 9475  15.292   2.798   2.379
    1QTZ  O9476 9476  15.013   2.744   1.483
    1QTZ  O9477 9477  15.550   2.670   2.031
    1QTZ  O9478 9478  15.146   2.629   1.917
    1QTZ  O9479 9479  15.750   2.655   2.564
    1QTZ  O9480 9480  15.431   2.610   1.551
    1QTZ  O9481 9481  15.669   2.545   1.476
    1QTZ  O9482 9482  15.106   2.594   2.388
    1QTZ  O9483 9483  15.384   2.500   1.928
    1QTZ  O9484 9484  15.021   2.821   1.767
    1QTZ  O9485 9485  15.622   2.744   2.311
    1QTZ  O9486 9486  15.355   2.796   1.332
    1QTZ  Si948 9487  15.823   2.588   1.423
    1QTZ  Si948 9488  15.256   2.641   2.325
    1QTZ  Si948 9489  15.547   2.527   1.939
    1QTZ  Si949 9490  15.060   2.770   1.930
    1QTZ  Si949 9491  15.648   2.777   2.485
    1QTZ  Si949 9492  15.382   2.764   1.503
    1QTZ  Si949 9493  15.337   2.904   2.506
    1QTZ  Si949 9494  15.083   2.840   1.605
    1QTZ  Si949 9495  15.637   2.772   2.133
    1QTZ  Si949 9496  15.241   2.527   2.008
    1QTZ  Si949 9497  15.867   2.527   2.526
    1QTZ  Si949 9498  15.559   2.513   1.602
    1QTZ  O9499 9499  15.373   2.993   1.106
    1QTZ  O9500 9500  15.926   3.048   0.209
    1QTZ  O9501 9501  15.668   2.919   0.558
    1QTZ  O9502 9502  15.237   3.377   0.672
    1QTZ  O9503 9503  15.788   3.356   1.037
    1QTZ  O9504 9504  15.467   3.402   0.025
    1QTZ  O9505 9505  15.549   3.293   1.113
    1QTZ  O9506 9506  15.278   3.341   0.201
    1QTZ  O9507 9507  15.835   3.248   0.661
    1QTZ  O9508 9508  15.364   3.071   0.822
    1QTZ  O9509 9509  15.596   2.994   0.278
    1QTZ  O9510 9510  15.310   3.242   1.056
    1QTZ  O9511 9511  15.024   3.290   0.177
    1QTZ  O9512 9512  15.614   3.173   0.524
    1QTZ  O9513 9513  15.224   3.129   0.580
    1QTZ  O9514 9514  15.713   3.106   1.023
    1QTZ  O9515 9515  15.454   3.150   0.114
    1QTZ  O9516 9516  15.722   3.089   0.033
    1QTZ  O9517 9517  15.138   3.049   0.992
    1QTZ  O9518 9518  15.434   2.993   0.530
    1QTZ  O9519 9519  15.110   3.355   0.432
    1QTZ  O9520 9520  15.616   3.273   0.817
    1QTZ  O9521 9521  15.194   3.213   0.003
    1QTZ  Si952 9522  15.880   3.154   0.083
    1QTZ  Si952 9523  15.301   3.090   0.985
    1QTZ  Si952 9524  15.582   3.021   0.456
    1QTZ  Si952 9525  15.143   3.275   0.582
    1QTZ  Si952 9526  15.659   3.259   0.987
    1QTZ  Si952 9527  15.351   3.274   0.063
    1QTZ  Si952 9528  15.396   3.335   1.166
    1QTZ  Si952 9529  15.127   3.388   0.265
    1QTZ  Si953 9530  15.672   3.274   0.650
    1QTZ  Si953 9531  15.325   3.021   0.659
    1QTZ  Si953 9532  15.837   3.013   1.086
    1QTZ  Si953 9533  15.570   3.026   0.104
    1QTZ  O9534 9534  15.359   3.040   2.413
    1QTZ  O9535 9535  15.909   2.992   1.533
    1QTZ  O9536 9536  15.606   2.923   2.064
    1QTZ  O9537 9537  15.161   3.376   2.009
    1QTZ  O9538 9538  15.763   3.398   2.475
    1QTZ  O9539 9539  15.506   3.354   1.566
    1QTZ  O9540 9540  15.495   3.337   2.555
    1QTZ  O9541 9541  15.246   3.298   1.597
    1QTZ  O9542 9542  15.784   3.241   2.058
    1QTZ  O9543 9543  15.274   3.105   2.157
    1QTZ  O9544 9544  15.863   3.044   1.257
    1QTZ  O9545 9545  15.603   3.025   1.772
    1QTZ  O9546 9546  15.292   3.296   2.379
    1QTZ  O9547 9547  15.012   3.242   1.483
    1QTZ  O9548 9548  15.550   3.167   2.031
    1QTZ  O9549 9549  15.146   3.127   1.917
    1QTZ  O9550 9550  15.750   3.153   2.564
    1QTZ  O9551 9551  15.430   3.107   1.551
    1QTZ  O9552 9552  15.669   3.043   1.476
    1QTZ  O9553 9553  15.106   3.091   2.388
    1QTZ  O9554 9554  15.384   2.998   1.928
    1QTZ  O9555 9555  15.021   3.319   1.767
    1QTZ  O9556 9556  15.622   3.242   2.310
    1QTZ  O9557 9557  15.355   3.293   1.332
    1QTZ  Si955 9558  15.823   3.085   1.423
    1QTZ  Si955 9559  15.256   3.139   2.325
    1QTZ  Si956 9560  15.546   3.025   1.939
    1QTZ  Si956 9561  15.060   3.268   1.930
    1QTZ  Si956 9562  15.648   3.274   2.484
    1QTZ  Si956 9563  15.382   3.261   1.503
    1QTZ  Si956 9564  15.337   3.402   2.506
    1QTZ  Si956 9565  15.083   3.338   1.605
    1QTZ  Si956 9566  15.636   3.269   2.133
    1QTZ  Si956 9567  15.240   3.025   2.008
    1QTZ  Si956 9568  15.867   3.025   2.526
    1QTZ  Si956 9569  15.559   3.010   1.602
    1QTZ  O9570 9570  16.206   0.007   1.105
    1QTZ  O9571 9571  16.502   3.417   0.558
    1QTZ  O9572 9572  16.072   0.391   0.672
    1QTZ  O9573 9573  16.622   0.370   1.037
    1QTZ  O9574 9574  16.301   0.416   0.025
    1QTZ  O9575 9575  16.383   0.306   1.113
    1QTZ  O9576 9576  16.112   0.355   0.201
    1QTZ  O9577 9577  16.669   0.261   0.661
    1QTZ  O9578 9578  16.198   0.085   0.821
    1QTZ  O9579 9579  16.430   0.007   0.278
    1QTZ  O9580 9580  16.144   0.255   1.056
    1QTZ  O9581 9581  15.858   0.304   0.177
    1QTZ  O9582 9582  16.447   0.186   0.524
    1QTZ  O9583 9583  16.057   0.142   0.580
    1QTZ  O9584 9584  16.547   0.119   1.023
    1QTZ  O9585 9585  16.288   0.164   0.114
    1QTZ  O9586 9586  16.556   0.103   0.033
    1QTZ  O9587 9587  15.972   0.063   0.991
    1QTZ  O9588 9588  16.268   0.006   0.530
    1QTZ  O9589 9589  15.944   0.369   0.432
    1QTZ  O9590 9590  16.449   0.287   0.816
    1QTZ  O9591 9591  16.028   0.227   0.002
    1QTZ  Si959 9592  13.378   0.167   0.083
    1QTZ  Si959 9593  16.135   0.103   0.984
    1QTZ  Si959 9594  16.416   0.035   0.455
    1QTZ  Si959 9595  15.977   0.288   0.582
    1QTZ  Si959 9596  16.493   0.273   0.987
    1QTZ  Si959 9597  16.185   0.288   0.063
    1QTZ  Si959 9598  16.230   0.348   1.166
    1QTZ  Si959 9599  15.961   0.402   0.264
    1QTZ  Si960 9600  16.506   0.288   0.649
    1QTZ  Si960 9601  16.159   0.034   0.659
    1QTZ  Si960 9602  16.671   0.026   1.086
    1QTZ  Si960 9603  16.404   0.040   0.104
    1QTZ  O9604 9604  16.193   0.054   2.413
    1QTZ  O9605 9605  16.440   3.421   2.064
    1QTZ  O9606 9606  15.994   0.389   2.009
    1QTZ  O9607 9607  16.597   0.411   2.475
    1QTZ  O9608 9608  16.340   0.368   1.566
    1QTZ  O9609 9609  16.329   0.350   2.555
    1QTZ  O9610 9610  16.080   0.312   1.597
    1QTZ  O9611 9611  16.618   0.255   2.059
    1QTZ  O9612 9612  16.108   0.118   2.157
    1QTZ  O9613 9613  16.437   0.038   1.772
    1QTZ  O9614 9614  16.126   0.309   2.379
    1QTZ  O9615 9615  15.846   0.255   1.483
    1QTZ  O9616 9616  16.384   0.181   2.030
    1QTZ  O9617 9617  15.980   0.140   1.917
    1QTZ  O9618 9618  16.584   0.166   2.564
    1QTZ  O9619 9619  16.264   0.121   1.551
    1QTZ  O9620 9620  16.503   0.057   1.475
    1QTZ  O9621 9621  15.940   0.105   2.388
    1QTZ  O9622 9622  16.218   0.011   1.928
    1QTZ  O9623 9623  15.855   0.332   1.767
    1QTZ  O9624 9624  16.456   0.255   2.310
    1QTZ  O9625 9625  16.189   0.306   1.332
    1QTZ  Si962 9626  16.657   0.099   1.423
    1QTZ  Si962 9627  16.090   0.152   2.324
    1QTZ  Si962 9628  16.381   0.038   1.939
    1QTZ  Si962 9629  15.894   0.281   1.930
    1QTZ  Si963 9630  16.482   0.288   2.484
    1QTZ  Si963 9631  16.216   0.275   1.502
    1QTZ  Si963 9632  16.171   0.415   2.505
    1QTZ  Si963 9633  15.917   0.352   1.604
    1QTZ  Si963 9634  16.470   0.283   2.133
    1QTZ  Si963 9635  16.075   0.038   2.007
    1QTZ  Si963 9636  16.700   0.038   2.526
    1QTZ  Si963 9637  16.393   0.024   1.601
    1QTZ  O9638 9638  16.206   0.505   1.106
    1QTZ  O9639 9639  16.502   0.430   0.558
    1QTZ  O9640 9640  16.072   0.888   0.672
    1QTZ  O9641 9641  16.622   0.868   1.038
    1QTZ  O9642 9642  16.301   0.914   0.025
    1QTZ  O9643 9643  16.383   0.804   1.114
    1QTZ  O9644 9644  16.111   0.853   0.201
    1QTZ  O9645 9645  16.669   0.759   0.661
    1QTZ  O9646 9646  16.197   0.582   0.822
    1QTZ  O9647 9647  16.430   0.505   0.279
    1QTZ  O9648 9648  16.143   0.753   1.056
    1QTZ  O9649 9649  15.858   0.802   0.177
    1QTZ  O9650 9650  16.447   0.684   0.525
    1QTZ  O9651 9651  16.058   0.640   0.580
    1QTZ  O9652 9652  16.547   0.617   1.023
    1QTZ  O9653 9653  16.288   0.661   0.114
    1QTZ  O9654 9654  16.556   0.600   0.034
    1QTZ  O9655 9655  15.972   0.561   0.992
    1QTZ  O9656 9656  16.268   0.503   0.531
    1QTZ  O9657 9657  15.944   0.866   0.432
    1QTZ  O9658 9658  16.449   0.785   0.817
    1QTZ  O9659 9659  16.028   0.725   0.003
    1QTZ  Si966 9660  13.378   0.665   0.084
    1QTZ  Si966 9661  16.135   0.601   0.985
    1QTZ  Si966 9662  16.416   0.532   0.456
    1QTZ  Si966 9663  15.977   0.786   0.582
    1QTZ  Si966 9664  16.493   0.771   0.988
    1QTZ  Si966 9665  16.185   0.786   0.063
    1QTZ  Si966 9666  16.229   0.846   1.166
    1QTZ  Si966 9667  15.961   0.900   0.265
    1QTZ  Si966 9668  16.506   0.786   0.650
    1QTZ  Si966 9669  16.159   0.532   0.660
    1QTZ  Si967 9670  16.671   0.524   1.086
    1QTZ  Si967 9671  16.404   0.538   0.105
    1QTZ  O9672 9672  16.193   0.552   2.413
    1QTZ  O9673 9673  16.438   0.435   2.064
    1QTZ  O9674 9674  15.995   0.887   2.009
    1QTZ  O9675 9675  16.597   0.909   2.475
    1QTZ  O9676 9676  16.339   0.865   1.567
    1QTZ  O9677 9677  16.329   0.848   2.555
    1QTZ  O9678 9678  16.080   0.809   1.598
    1QTZ  O9679 9679  16.618   0.750   2.058
    1QTZ  O9680 9680  16.107   0.616   2.157
    1QTZ  O9681 9681  16.436   0.536   1.772
    1QTZ  O9682 9682  16.126   0.807   2.379
    1QTZ  O9683 9683  15.846   0.753   1.484
    1QTZ  O9684 9684  16.384   0.679   2.030
    1QTZ  O9685 9685  15.978   0.638   1.918
    1QTZ  O9686 9686  16.584   0.663   2.564
    1QTZ  O9687 9687  16.264   0.619   1.551
    1QTZ  O9688 9688  16.503   0.555   1.476
    1QTZ  O9689 9689  15.940   0.603   2.388
    1QTZ  O9690 9690  16.216   0.510   1.927
    1QTZ  O9691 9691  15.854   0.831   1.768
    1QTZ  O9692 9692  16.456   0.753   2.310
    1QTZ  O9693 9693  16.189   0.805   1.332
    1QTZ  Si969 9694  16.657   0.597   1.423
    1QTZ  Si969 9695  16.090   0.650   2.325
    1QTZ  Si969 9696  16.379   0.536   1.939
    1QTZ  Si969 9697  15.893   0.780   1.930
    1QTZ  Si969 9698  16.482   0.785   2.484
    1QTZ  Si969 9699  16.215   0.773   1.503
    1QTZ  Si970 9700  16.171   0.913   2.506
    1QTZ  Si970 9701  15.917   0.850   1.605
    1QTZ  Si970 9702  16.471   0.780   2.133
    1QTZ  Si970 9703  16.073   0.536   2.008
    1QTZ  Si970 9704  16.701   0.536   2.526
    1QTZ  Si970 9705  16.393   0.522   1.601
    1QTZ  O9706 9706  16.206   1.003   1.106
    1QTZ  O9707 9707  16.502   0.928   0.559
    1QTZ  O9708 9708  16.073   1.386   0.672
    1QTZ  O9709 9709  16.622   1.366   1.037
    1QTZ  O9710 9710  16.302   1.411   0.025
    1QTZ  O9711 9711  16.383   1.301   1.113
    1QTZ  O9712 9712  16.112   1.350   0.202
    1QTZ  O9713 9713  16.668   1.256   0.661
    1QTZ  O9714 9714  16.197   1.080   0.822
    1QTZ  O9715 9715  16.429   1.002   0.279
    1QTZ  O9716 9716  16.143   1.251   1.056
    1QTZ  O9717 9717  15.858   1.299   0.177
    1QTZ  O9718 9718  16.446   1.181   0.525
    1QTZ  O9719 9719  16.058   1.138   0.580
    1QTZ  O9720 9720  16.547   1.115   1.023
    1QTZ  O9721 9721  16.288   1.159   0.114
    1QTZ  O9722 9722  16.556   1.098   0.034
    1QTZ  O9723 9723  15.972   1.059   0.992
    1QTZ  O9724 9724  16.267   1.001   0.531
    1QTZ  O9725 9725  15.944   1.364   0.433
    1QTZ  O9726 9726  16.449   1.283   0.817
    1QTZ  O9727 9727  16.028   1.222   0.003
    1QTZ  Si972 9728  13.378   1.163   0.084
    1QTZ  Si972 9729  16.135   1.099   0.985
    1QTZ  Si973 9730  16.415   1.030   0.456
    1QTZ  Si973 9731  15.978   1.284   0.582
    1QTZ  Si973 9732  16.493   1.268   0.987
    1QTZ  Si973 9733  16.185   1.284   0.064
    1QTZ  Si973 9734  16.230   1.344   1.166
    1QTZ  Si973 9735  15.961   1.398   0.265
    1QTZ  Si973 9736  16.505   1.283   0.650
    1QTZ  Si973 9737  16.158   1.029   0.660
    1QTZ  Si973 9738  16.671   1.022   1.087
    1QTZ  Si973 9739  16.404   1.035   0.105
    1QTZ  O9740 9740  16.193   1.049   2.413
    1QTZ  O9741 9741  16.441   0.932   2.064
    1QTZ  O9742 9742  15.994   1.385   2.009
    1QTZ  O9743 9743  16.597   1.407   2.475
    1QTZ  O9744 9744  16.340   1.363   1.566
    1QTZ  O9745 9745  16.329   1.346   2.556
    1QTZ  O9746 9746  16.080   1.307   1.597
    1QTZ  O9747 9747  16.618   1.251   2.060
    1QTZ  O9748 9748  16.108   1.114   2.157
    1QTZ  O9749 9749  16.437   1.034   1.772
    1QTZ  O9750 9750  16.126   1.305   2.380
    1QTZ  O9751 9751  15.846   1.251   1.483
    1QTZ  O9752 9752  16.384   1.176   2.031
    1QTZ  O9753 9753  15.981   1.136   1.917
    1QTZ  O9754 9754  16.584   1.161   2.565
    1QTZ  O9755 9755  16.264   1.116   1.551
    1QTZ  O9756 9756  16.503   1.052   1.476
    1QTZ  O9757 9757  15.940   1.100   2.388
    1QTZ  O9758 9758  16.219   1.006   1.929
    1QTZ  O9759 9759  15.855   1.327   1.767
    1QTZ  O9760 9760  16.455   1.251   2.311
    1QTZ  O9761 9761  16.189   1.302   1.332
    1QTZ  Si976 9762  16.657   1.094   1.423
    1QTZ  Si976 9763  16.090   1.148   2.325
    1QTZ  Si976 9764  16.381   1.034   1.939
    1QTZ  Si976 9765  15.894   1.277   1.930
    1QTZ  Si976 9766  16.482   1.283   2.485
    1QTZ  Si976 9767  16.216   1.270   1.503
    1QTZ  Si976 9768  16.171   1.411   2.506
    1QTZ  Si976 9769  15.917   1.347   1.605
    1QTZ  Si977 9770  16.470   1.279   2.134
    1QTZ  Si977 9771  16.075   1.034   2.008
    1QTZ  Si977 9772  16.700   1.034   2.526
    1QTZ  Si977 9773  16.393   1.019   1.602
    1QTZ  O9774 9774  16.206   1.500   1.106
    1QTZ  O9775 9775  16.502   1.425   0.559
    1QTZ  O9776 9776  16.071   1.884   0.672
    1QTZ  O9777 9777  16.622   1.863   1.038
    1QTZ  O9778 9778  16.301   1.909   0.025
    1QTZ  O9779 9779  16.383   1.800   1.114
    1QTZ  O9780 9780  16.112   1.848   0.201
    1QTZ  O9781 9781  16.669   1.755   0.662
    1QTZ  O9782 9782  16.197   1.578   0.822
    1QTZ  O9783 9783  16.430   1.501   0.279
    1QTZ  O9784 9784  16.143   1.749   1.057
    1QTZ  O9785 9785  15.858   1.797   0.177
    1QTZ  O9786 9786  16.448   1.679   0.525
    1QTZ  O9787 9787  16.058   1.635   0.580
    1QTZ  O9788 9788  16.546   1.612   1.024
    1QTZ  O9789 9789  16.288   1.657   0.114
    1QTZ  O9790 9790  16.556   1.596   0.034
    1QTZ  O9791 9791  15.972   1.556   0.992
    1QTZ  O9792 9792  16.268   1.500   0.531
    1QTZ  O9793 9793  15.944   1.862   0.432
    1QTZ  O9794 9794  16.450   1.781   0.817
    1QTZ  O9795 9795  16.028   1.720   0.003
    1QTZ  Si979 9796  13.378   1.660   0.084
    1QTZ  Si979 9797  16.135   1.597   0.985
    1QTZ  Si979 9798  16.416   1.528   0.456
    1QTZ  Si979 9799  15.977   1.781   0.582
    1QTZ  Si980 9800  16.493   1.766   0.988
    1QTZ  Si980 9801  16.185   1.781   0.063
    1QTZ  Si980 9802  16.229   1.842   1.167
    1QTZ  Si980 9803  15.961   1.895   0.265
    1QTZ  Si980 9804  16.507   1.781   0.650
    1QTZ  Si980 9805  16.159   1.528   0.660
    1QTZ  Si980 9806  16.671   1.519   1.087
    1QTZ  Si980 9807  16.404   1.533   0.105
    1QTZ  O9808 9808  16.193   1.547   2.413
    1QTZ  O9809 9809  16.437   1.430   2.065
    1QTZ  O9810 9810  15.995   1.883   2.009
    1QTZ  O9811 9811  16.597   1.905   2.475
    1QTZ  O9812 9812  16.339   1.861   1.567
    1QTZ  O9813 9813  16.330   1.843   2.555
    1QTZ  O9814 9814  16.080   1.805   1.598
    1QTZ  O9815 9815  16.618   1.745   2.058
    1QTZ  O9816 9816  16.107   1.611   2.157
    1QTZ  O9817 9817  16.436   1.531   1.773
    1QTZ  O9818 9818  16.126   1.803   2.379
    1QTZ  O9819 9819  15.845   1.749   1.484
    1QTZ  O9820 9820  16.383   1.674   2.031
    1QTZ  O9821 9821  15.978   1.634   1.918
    1QTZ  O9822 9822  16.585   1.659   2.564
    1QTZ  O9823 9823  16.264   1.614   1.552
    1QTZ  O9824 9824  16.503   1.550   1.476
    1QTZ  O9825 9825  15.940   1.598   2.389
    1QTZ  O9826 9826  16.216   1.505   1.928
    1QTZ  O9827 9827  15.854   1.826   1.768
    1QTZ  O9828 9828  16.457   1.748   2.310
    1QTZ  O9829 9829  16.189   1.800   1.332
    1QTZ  Si983 9830  16.657   1.592   1.423
    1QTZ  Si983 9831  16.090   1.645   2.325
    1QTZ  Si983 9832  16.379   1.532   1.939
    1QTZ  Si983 9833  15.893   1.776   1.930
    1QTZ  Si983 9834  16.482   1.781   2.484
    1QTZ  Si983 9835  16.215   1.768   1.503
    1QTZ  Si983 9836  16.172   1.908   2.505
    1QTZ  Si983 9837  15.917   1.845   1.605
    1QTZ  Si983 9838  16.471   1.776   2.133
    1QTZ  Si983 9839  16.073   1.532   2.008
    1QTZ  Si984 9840  16.701   1.531   2.526
    1QTZ  Si984 9841  16.393   1.517   1.602
    1QTZ  O9842 9842  16.206   1.998   1.106
    1QTZ  O9843 9843  16.502   1.923   0.559
    1QTZ  O9844 9844  16.074   2.382   0.671
    1QTZ  O9845 9845  16.622   2.361   1.037
    1QTZ  O9846 9846  16.302   2.406   0.024
    1QTZ  O9847 9847  16.384   2.297   1.113
    1QTZ  O9848 9848  16.112   2.346   0.201
    1QTZ  O9849 9849  16.668   2.251   0.660
    1QTZ  O9850 9850  16.197   2.075   0.822
    1QTZ  O9851 9851  16.429   1.998   0.279
    1QTZ  O9852 9852  16.144   2.247   1.056
    1QTZ  O9853 9853  15.859   2.295   0.176
    1QTZ  O9854 9854  16.446   2.177   0.525
    1QTZ  O9855 9855  16.058   2.133   0.580
    1QTZ  O9856 9856  16.547   2.110   1.023
    1QTZ  O9857 9857  16.289   2.154   0.114
    1QTZ  O9858 9858  16.556   2.093   0.034
    1QTZ  O9859 9859  15.972   2.054   0.992
    1QTZ  O9860 9860  16.268   1.995   0.531
    1QTZ  O9861 9861  15.945   2.359   0.432
    1QTZ  O9862 9862  16.449   2.278   0.817
    1QTZ  O9863 9863  16.029   2.217   0.003
    1QTZ  Si986 9864  13.378   2.158   0.084
    1QTZ  Si986 9865  16.135   2.094   0.985
    1QTZ  Si986 9866  16.415   2.025   0.456
    1QTZ  Si986 9867  15.979   2.280   0.582
    1QTZ  Si986 9868  16.493   2.264   0.987
    1QTZ  Si986 9869  16.186   2.279   0.063
    1QTZ  Si987 9870  16.230   2.339   1.166
    1QTZ  Si987 9871  15.962   2.393   0.264
    1QTZ  Si987 9872  16.505   2.278   0.649
    1QTZ  Si987 9873  16.158   2.025   0.660
    1QTZ  Si987 9874  16.671   2.017   1.086
    1QTZ  Si987 9875  16.404   2.030   0.105
    1QTZ  O9876 9876  16.193   2.045   2.413
    1QTZ  O9877 9877  16.441   1.928   2.064
    1QTZ  O9878 9878  15.994   2.380   2.009
    1QTZ  O9879 9879  16.598   2.402   2.475
    1QTZ  O9880 9880  16.340   2.359   1.566
    1QTZ  O9881 9881  16.330   2.342   2.555
    1QTZ  O9882 9882  16.081   2.303   1.597
    1QTZ  O9883 9883  16.618   2.246   2.059
    1QTZ  O9884 9884  16.108   2.109   2.157
    1QTZ  O9885 9885  16.437   2.029   1.772
    1QTZ  O9886 9886  16.126   2.300   2.379
    1QTZ  O9887 9887  15.847   2.246   1.483
    1QTZ  O9888 9888  16.384   2.172   2.031
    1QTZ  O9889 9889  15.981   2.131   1.917
    1QTZ  O9890 9890  16.584   2.157   2.564
    1QTZ  O9891 9891  16.265   2.112   1.551
    1QTZ  O9892 9892  16.503   2.047   1.476
    1QTZ  O9893 9893  15.940   2.096   2.388
    1QTZ  O9894 9894  16.219   2.002   1.928
    1QTZ  O9895 9895  15.855   2.323   1.767
    1QTZ  O9896 9896  16.456   2.247   2.311
    1QTZ  O9897 9897  16.190   2.298   1.332
    1QTZ  Si989 9898  16.657   2.090   1.423
    1QTZ  Si989 9899  16.091   2.143   2.325
    1QTZ  Si990 9900  16.381   2.029   1.939
    1QTZ  Si990 9901  15.894   2.272   1.929
    1QTZ  Si990 9902  16.482   2.279   2.485
    1QTZ  Si990 9903  16.216   2.266   1.502
    1QTZ  Si990 9904  16.171   2.406   2.505
    1QTZ  Si990 9905  15.918   2.343   1.604
    1QTZ  Si990 9906  16.470   2.274   2.133
    1QTZ  Si990 9907  16.075   2.029   2.008
    1QTZ  Si990 9908  16.700   2.029   2.526
    1QTZ  Si990 9909  16.393   2.015   1.602
    1QTZ  O9910 9910  16.207   2.496   1.105
    1QTZ  O9911 9911  16.502   2.421   0.558
    1QTZ  O9912 9912  16.071   2.879   0.672
    1QTZ  O9913 9913  16.622   2.859   1.037
    1QTZ  O9914 9914  16.301   2.904   0.024
    1QTZ  O9915 9915  16.384   2.795   1.113
    1QTZ  O9916 9916  16.112   2.843   0.201
    1QTZ  O9917 9917  16.670   2.750   0.661
    1QTZ  O9918 9918  16.198   2.574   0.821
    1QTZ  O9919 9919  16.430   2.496   0.278
    1QTZ  O9920 9920  16.144   2.744   1.056
    1QTZ  O9921 9921  15.859   2.792   0.176
    1QTZ  O9922 9922  16.448   2.675   0.524
    1QTZ  O9923 9923  16.058   2.631   0.580
    1QTZ  O9924 9924  16.547   2.608   1.023
    1QTZ  O9925 9925  16.289   2.652   0.114
    1QTZ  O9926 9926  16.557   2.591   0.033
    1QTZ  O9927 9927  15.973   2.552   0.991
    1QTZ  O9928 9928  16.268   2.495   0.530
    1QTZ  O9929 9929  15.944   2.857   0.432
    1QTZ  O9930 9930  16.450   2.776   0.816
    1QTZ  O9931 9931  16.028   2.715   0.002
    1QTZ  Si993 9932  13.378   2.656   0.083
    1QTZ  Si993 9933  16.136   2.592   0.984
    1QTZ  Si993 9934  16.416   2.523   0.455
    1QTZ  Si993 9935  15.977   2.777   0.581
    1QTZ  Si993 9936  16.494   2.762   0.987
    1QTZ  Si993 9937  16.185   2.777   0.063
    1QTZ  Si993 9938  16.230   2.837   1.166
    1QTZ  Si993 9939  15.961   2.891   0.264
    1QTZ  Si994 9940  16.507   2.777   0.650
    1QTZ  Si994 9941  16.159   2.524   0.659
    1QTZ  Si994 9942  16.671   2.515   1.086
    1QTZ  Si994 9943  16.404   2.528   0.104
    1QTZ  O9944 9944  16.193   2.543   2.413
    1QTZ  O9945 9945  16.439   2.426   2.064
    1QTZ  O9946 9946  15.995   2.878   2.009
    1QTZ  O9947 9947  16.598   2.900   2.475
    1QTZ  O9948 9948  16.340   2.856   1.566
    1QTZ  O9949 9949  16.330   2.839   2.555
    1QTZ  O9950 9950  16.080   2.800   1.597
    1QTZ  O9951 9951  16.618   2.742   2.058
    1QTZ  O9952 9952  16.108   2.607   2.157
    1QTZ  O9953 9953  16.437   2.527   1.772
    1QTZ  O9954 9954  16.126   2.798   2.379
    1QTZ  O9955 9955  15.846   2.744   1.483
    1QTZ  O9956 9956  16.384   2.670   2.030
    1QTZ  O9957 9957  15.979   2.629   1.917
    1QTZ  O9958 9958  16.585   2.655   2.564
    1QTZ  O9959 9959  16.264   2.610   1.551
    1QTZ  O9960 9960  16.503   2.546   1.475
    1QTZ  O9961 9961  15.940   2.594   2.388
    1QTZ  O9962 9962  16.217   2.500   1.927
    1QTZ  O9963 9963  15.855   2.821   1.767
    1QTZ  O9964 9964  16.456   2.744   2.310
    1QTZ  O9965 9965  16.189   2.795   1.332
    1QTZ  Si996 9966  16.657   2.588   1.423
    1QTZ  Si996 9967  16.090   2.641   2.324
    1QTZ  Si996 9968  16.380   2.527   1.939
    1QTZ  Si996 9969  15.894   2.771   1.930
    1QTZ  Si997 9970  16.482   2.777   2.484
    1QTZ  Si997 9971  16.216   2.764   1.502
    1QTZ  Si997 9972  16.172   2.904   2.505
    1QTZ  Si997 9973  15.917   2.840   1.604
    1QTZ  Si997 9974  16.471   2.772   2.132
    1QTZ  Si997 9975  16.074   2.527   2.007
    1QTZ  Si997 9976  16.701   2.527   2.525
    1QTZ  Si997 9977  16.393   2.513   1.601
    1QTZ  O9978 9978  16.206   2.993   1.106
    1QTZ  O9979 9979  16.503   2.919   0.558
    1QTZ  O9980 9980  16.073   3.377   0.671
    1QTZ  O9981 9981  16.622   3.357   1.037
    1QTZ  O9982 9982  16.302   3.402   0.024
    1QTZ  O9983 9983  16.383   3.292   1.113
    1QTZ  O9984 9984  16.112   3.341   0.200
    1QTZ  O9985 9985  16.668   3.247   0.660
    1QTZ  O9986 9986  16.197   3.070   0.822
    1QTZ  O9987 9987  16.430   2.993   0.278
    1QTZ  O9988 9988  16.144   3.242   1.056
    1QTZ  O9989 9989  15.859   3.290   0.176
    1QTZ  O9990 9990  16.446   3.172   0.525
    1QTZ  O9991 9991  16.059   3.128   0.579
    1QTZ  O9992 9992  16.547   3.106   1.022
    1QTZ  O9993 9993  16.289   3.150   0.114
    1QTZ  O9994 9994  16.556   3.089   0.033
    1QTZ  O9995 9995  15.972   3.050   0.992
    1QTZ  O9996 9996  16.268   2.991   0.531
    1QTZ  O9997 9997  15.945   3.355   0.432
    1QTZ  O9998 9998  16.449   3.274   0.816
    1QTZ  O9999 9999  16.028   3.213   0.002
    1QTZ  Si10010000  13.378   3.154   0.083
    1QTZ  Si10010001  16.135   3.090   0.984
    1QTZ  Si10010002  16.415   3.021   0.456
    1QTZ  Si10010003  15.978   3.275   0.581
    1QTZ  Si10010004  16.493   3.259   0.987
    1QTZ  Si10010005  16.185   3.275   0.063
    1QTZ  Si10010006  16.230   3.335   1.166
    1QTZ  Si10010007  15.962   3.388   0.264
    1QTZ  Si10010008  16.505   3.274   0.649
    1QTZ  Si10010009  16.159   3.020   0.659
    1QTZ  Si10010010  16.671   3.013   1.086
    1QTZ  Si10010011  16.404   3.026   0.104
    1QTZ  O100110012  16.193   3.041   2.412
    1QTZ  O100110013  16.440   2.923   2.063
    1QTZ  O100110014  15.995   3.376   2.009
    1QTZ  O100110015  16.597   3.398   2.475
    1QTZ  O100110016  16.340   3.354   1.566
    1QTZ  O100110017  16.330   3.337   2.555
    1QTZ  O100110018  16.080   3.298   1.597
    1QTZ  O100110019  16.619   3.240   2.058
    1QTZ  O100210020  16.108   3.105   2.156
    1QTZ  O100210021  16.437   3.025   1.772
    1QTZ  O100210022  16.126   3.296   2.379
    1QTZ  O100210023  15.846   3.242   1.483
    1QTZ  O100210024  16.384   3.167   2.030
    1QTZ  O100210025  15.979   3.127   1.917
    1QTZ  O100210026  16.584   3.152   2.564
    1QTZ  O100210027  16.265   3.107   1.551
    1QTZ  O100210028  16.503   3.043   1.475
    1QTZ  O100210029  15.940   3.091   2.388
    1QTZ  O100310030  16.218   2.998   1.927
    1QTZ  O100310031  15.855   3.319   1.767
    1QTZ  O100310032  16.456   3.242   2.310
    1QTZ  O100310033  16.189   3.293   1.332
    1QTZ  Si10010034  16.657   3.085   1.422
    1QTZ  Si10010035  16.090   3.139   2.324
    1QTZ  Si10010036  16.381   3.025   1.938
    1QTZ  Si10010037  15.893   3.268   1.930
    1QTZ  Si10010038  16.482   3.274   2.484
    1QTZ  Si10010039  16.216   3.262   1.502
    1QTZ  Si10010040  16.171   3.402   2.505
    1QTZ  Si10010041  15.917   3.338   1.604
    1QTZ  Si10010042  16.471   3.269   2.133
    1QTZ  Si10010043  16.075   3.025   2.007
    1QTZ  Si10010044  16.701   3.025   2.526
    1QTZ  Si10010045  16.393   3.010   1.601
    1QTZ  O100410046  13.423   0.061   0.209
    1QTZ  O100410047  13.406   0.006   1.533
    1QTZ  O100410048  16.697   0.058   1.257
    1QTZ  O100410049  13.423   0.559   0.210
    1QTZ  O100510050  13.406   0.504   1.533
    1QTZ  O100510051  16.697   0.555   1.257
    1QTZ  O100510052  13.423   1.057   0.210
    1QTZ  O100510053  13.406   1.001   1.533
    1QTZ  O100510054  16.697   1.053   1.257
    1QTZ  O100510055  13.423   1.555   0.210
    1QTZ  O100510056  13.406   1.499   1.533
    1QTZ  O100510057  16.697   1.550   1.257
    1QTZ  O100510058  13.423   2.052   0.210
    1QTZ  O100510059  13.406   1.997   1.533
    1QTZ  O100610060  13.361   2.049   1.257
    1QTZ  O100610061  13.423   2.550   0.209
    1QTZ  O100610062  13.406   2.495   1.533
    1QTZ  O100610063  13.361   2.546   1.257
    1QTZ  O100610064  13.423   3.048   0.209
    1QTZ  O100610065  13.406   2.993   1.532
    1QTZ  O100610066  13.361   3.044   1.256
    1QTZ  O100610067  16.693   0.304   0.176
    1QTZ  O100610068  16.680   0.255   1.483
    1QTZ  O100610069  16.693   0.802   0.177
    1QTZ  O100710070  16.681   0.753   1.483
    1QTZ  O100710071  16.693   1.299   0.177
    1QTZ  O100710072  16.680   1.251   1.484
    1QTZ  O100710073  16.693   1.797   0.177
    1QTZ  O100710074  16.681   1.749   1.483
    1QTZ  O100710075  16.693   2.295   0.176
    1QTZ  O100710076  16.680   2.246   1.483
    1QTZ  O100710077  16.693   2.792   0.176
    1QTZ  O100710078  16.681   2.744   1.483
    1QTZ  O100710079  16.693   3.290   0.176
    1QTZ  O100810080  16.680   3.242   1.483
    1QTZ  O100810081  17.040   0.007   1.106
    1QTZ  O100810082  17.594   0.061   0.210
    1QTZ  O100810083  17.337   3.416   0.558
    1QTZ  O100810084  16.906   0.391   0.672
    1QTZ  O100810085  17.456   0.370   1.038
    1QTZ  O100810086  17.136   0.416   0.025
    1QTZ  O100810087  17.217   0.306   1.113
    1QTZ  O100810088  16.946   0.355   0.201
    1QTZ  O100810089  17.503   0.261   0.661
    1QTZ  O100910090  17.031   0.084   0.822
    1QTZ  O100910091  17.264   0.007   0.279
    1QTZ  O100910092  16.978   0.256   1.056
    1QTZ  O100910093  17.281   0.186   0.525
    1QTZ  O100910094  16.892   0.142   0.580
    1QTZ  O100910095  17.381   0.119   1.023
    1QTZ  O100910096  17.122   0.163   0.114
    1QTZ  O100910097  17.390   0.102   0.034
    1QTZ  O100910098  16.806   0.063   0.992
    1QTZ  O100910099  17.102   0.005   0.531
    1QTZ  O101010100  16.779   0.368   0.432
    1QTZ  O101010101  17.284   0.287   0.817
    1QTZ  O101010102  16.863   0.227   0.002
    1QTZ  Si10110103  17.549   0.167   0.084
    1QTZ  Si10110104  16.969   0.103   0.985
    1QTZ  Si10110105  17.250   0.034   0.456
    1QTZ  Si10110106  16.812   0.288   0.581
    1QTZ  Si10110107  17.327   0.273   0.988
    1QTZ  Si10110108  17.019   0.288   0.063
    1QTZ  Si10110109  17.064   0.348   1.166
    1QTZ  Si10110110  16.796   0.402   0.264
    1QTZ  Si10110111  17.340   0.288   0.650
    1QTZ  Si10110112  16.993   0.034   0.659
    1QTZ  Si10110113  17.505   0.026   1.086
    1QTZ  Si10110114  17.238   0.040   0.105
    1QTZ  O101110115  17.027   0.054   2.412
    1QTZ  O101110116  17.577   0.006   1.533
    1QTZ  O101110117  17.273   3.421   2.064
    1QTZ  O101110118  16.829   0.390   2.009
    1QTZ  O101110119  17.431   0.411   2.475
    1QTZ  O101210120  17.173   0.368   1.566
    1QTZ  O101210121  17.164   0.350   2.555
    1QTZ  O101210122  16.914   0.312   1.597
    1QTZ  O101210123  17.453   0.252   2.058
    1QTZ  O101210124  16.942   0.119   2.156
    1QTZ  O101210125  17.532   0.057   1.257
    1QTZ  O101210126  17.271   0.038   1.772
    1QTZ  O101210127  16.960   0.309   2.379
    1QTZ  O101210128  17.218   0.181   2.031
    1QTZ  O101210129  16.813   0.141   1.917
    1QTZ  O101310130  17.419   0.165   2.564
    1QTZ  O101310131  17.098   0.121   1.551
    1QTZ  O101310132  17.337   0.057   1.476
    1QTZ  O101310133  16.774   0.105   2.388
    1QTZ  O101310134  17.051   0.012   1.927
    1QTZ  O101310135  20.025   0.333   1.767
    1QTZ  O101310136  17.291   0.255   2.310
    1QTZ  O101310137  17.023   0.307   1.332
    1QTZ  Si10110138  17.491   0.099   1.423
    1QTZ  Si10110139  16.924   0.152   2.324
    1QTZ  Si10110140  17.214   0.038   1.939
    1QTZ  Si10110141  16.727   0.282   1.930
    1QTZ  Si10110142  17.316   0.287   2.485
    1QTZ  Si10110143  17.049   0.275   1.503
    1QTZ  Si10110144  17.005   0.415   2.505
    1QTZ  Si10110145  16.751   0.352   1.604
    1QTZ  Si10110146  17.305   0.282   2.133
    1QTZ  Si10110147  16.908   0.039   2.007
    1QTZ  Si10110148  17.535   0.038   2.526
    1QTZ  Si10110149  17.227   0.024   1.601
    1QTZ  O101510150  16.857   0.474   2.586
    1QTZ  O101510151  16.857   0.972   2.587
    1QTZ  O101510152  16.858   1.470   2.587
    1QTZ  O101510153  16.857   1.968   2.587
    1QTZ  O101510154  16.858   2.466   2.586
    1QTZ  O101510155  16.857   2.963   2.586
    1QTZ  O101510156  16.857   3.461   2.586
    1QTZ  O101510157  17.691   0.474   2.587
    1QTZ  O101510158  17.692   0.972   2.587
    1QTZ  O101510159  17.691   1.470   2.587
    1QTZ  O101610160  17.692   1.968   2.586
    1QTZ  O101610161  17.691   2.466   2.587
    1QTZ  O101610162  17.692   2.963   2.586
    1QTZ  O101610163  17.692   3.461   2.587
    1QTZ  O101610164  18.526   0.474   2.587
    1QTZ  O101610165  18.525   0.972   2.587
    1QTZ  O101610166  18.526   1.470   2.587
    1QTZ  O101610167  18.526   1.968   2.587
    1QTZ  O101610168  18.526   2.466   2.587
    1QTZ  O101610169  18.526   2.963   2.587
    1QTZ  O101710170  18.526   3.461   2.587
    1QTZ  O101710171  19.360   0.475   2.587
    1QTZ  O101710172  19.360   0.972   2.587
    1QTZ  O101710173  19.360   1.470   2.587
    1QTZ  O101710174  19.360   1.968   2.587
    1QTZ  O101710175  19.360   2.466   2.587
    1QTZ  O101710176  19.360   2.963   2.586
    1QTZ  O101710177  19.360   3.461   2.586
    1QTZ  O101710178  17.040   0.505   1.106
    1QTZ  O101710179  17.594   0.559   0.210
    1QTZ  O101810180  17.336   0.430   0.558
    1QTZ  O101810181  16.906   0.889   0.672
    1QTZ  O101810182  17.456   0.868   1.037
    1QTZ  O101810183  17.136   0.913   0.025
    1QTZ  O101810184  17.217   0.804   1.113
    1QTZ  O101810185  16.946   0.852   0.201
    1QTZ  O101810186  17.503   0.758   0.661
    1QTZ  O101810187  17.031   0.582   0.822
    1QTZ  O101810188  17.264   0.505   0.278
    1QTZ  O101810189  16.978   0.753   1.056
    1QTZ  O101910190  17.281   0.683   0.525
    1QTZ  O101910191  16.892   0.640   0.580
    1QTZ  O101910192  17.381   0.617   1.023
    1QTZ  O101910193  17.122   0.661   0.114
    1QTZ  O101910194  17.390   0.600   0.034
    1QTZ  O101910195  16.806   0.561   0.992
    1QTZ  O101910196  17.102   0.503   0.530
    1QTZ  O101910197  16.778   0.866   0.433
    1QTZ  O101910198  17.284   0.784   0.817
    1QTZ  O101910199  16.862   0.725   0.003
    1QTZ  Si10210200  17.549   0.665   0.084
    1QTZ  Si10210201  16.969   0.601   0.985
    1QTZ  Si10210202  17.250   0.532   0.456
    1QTZ  Si10210203  16.812   0.786   0.582
    1QTZ  Si10210204  17.327   0.770   0.987
    1QTZ  Si10210205  17.019   0.786   0.063
    1QTZ  Si10210206  17.064   0.846   1.166
    1QTZ  Si10210207  16.796   0.900   0.265
    1QTZ  Si10210208  17.340   0.785   0.650
    1QTZ  Si10210209  16.993   0.532   0.659
    1QTZ  Si10210210  17.505   0.524   1.087
    1QTZ  Si10210211  17.238   0.537   0.105
    1QTZ  O102110212  17.027   0.552   2.413
    1QTZ  O102110213  17.577   0.504   1.533
    1QTZ  O102110214  17.275   0.434   2.064
    1QTZ  O102110215  16.828   0.887   2.009
    1QTZ  O102110216  17.431   0.909   2.476
    1QTZ  O102110217  17.174   0.866   1.566
    1QTZ  O102110218  17.163   0.848   2.556
    1QTZ  O102110219  16.914   0.809   1.597
    1QTZ  O102210220  17.452   0.753   2.060
    1QTZ  O102210221  16.942   0.616   2.157
    1QTZ  O102210222  17.531   0.555   1.258
    1QTZ  O102210223  17.271   0.536   1.772
    1QTZ  O102210224  16.960   0.807   2.379
    1QTZ  O102210225  17.218   0.678   2.031
    1QTZ  O102210226  16.815   0.638   1.917
    1QTZ  O102210227  17.418   0.663   2.565
    1QTZ  O102210228  17.099   0.619   1.552
    1QTZ  O102210229  17.337   0.554   1.476
    1QTZ  O102310230  16.774   0.602   2.388
    1QTZ  O102310231  17.053   0.508   1.929
    1QTZ  O102310232  20.026   0.829   1.767
    1QTZ  O102310233  17.290   0.753   2.311
    1QTZ  O102310234  17.023   0.804   1.332
    1QTZ  Si10210235  17.491   0.597   1.424
    1QTZ  Si10210236  16.925   0.650   2.325
    1QTZ  Si10210237  17.215   0.536   1.940
    1QTZ  Si10210238  16.728   0.779   1.929
    1QTZ  Si10210239  17.316   0.785   2.485
    1QTZ  Si10210240  17.050   0.773   1.503
    1QTZ  Si10210241  17.005   0.913   2.506
    1QTZ  Si10210242  16.751   0.849   1.604
    1QTZ  Si10210243  17.304   0.781   2.134
    1QTZ  Si10210244  16.909   0.536   2.008
    1QTZ  Si10210245  17.534   0.536   2.526
    1QTZ  Si10210246  17.227   0.521   1.602
    1QTZ  O102410247  17.040   1.002   1.106
    1QTZ  O102410248  17.594   1.057   0.210
    1QTZ  O102410249  17.336   0.927   0.559
    1QTZ  O102510250  16.905   1.386   0.672
    1QTZ  O102510251  17.456   1.365   1.038
    1QTZ  O102510252  17.136   1.411   0.025
    1QTZ  O102510253  17.217   1.302   1.114
    1QTZ  O102510254  16.946   1.350   0.201
    1QTZ  O102510255  17.503   1.257   0.662
    1QTZ  O102510256  17.032   1.080   0.822
    1QTZ  O102510257  17.264   1.003   0.279
    1QTZ  O102510258  16.978   1.251   1.057
    1QTZ  O102510259  17.282   1.181   0.525
    1QTZ  O102610260  16.892   1.138   0.580
    1QTZ  O102610261  17.381   1.114   1.024
    1QTZ  O102610262  17.122   1.159   0.114
    1QTZ  O102610263  17.391   1.098   0.034
    1QTZ  O102610264  16.806   1.059   0.992
    1QTZ  O102610265  17.102   1.001   0.531
    1QTZ  O102610266  16.778   1.364   0.432
    1QTZ  O102610267  17.284   1.282   0.817
    1QTZ  O102610268  16.862   1.222   0.003
    1QTZ  Si10210269  17.549   1.163   0.084
    1QTZ  Si10210270  16.969   1.099   0.985
    1QTZ  Si10210271  17.250   1.030   0.456
    1QTZ  Si10210272  16.811   1.284   0.582
    1QTZ  Si10210273  17.327   1.268   0.988
    1QTZ  Si10210274  17.019   1.283   0.063
    1QTZ  Si10210275  17.064   1.344   1.167
    1QTZ  Si10210276  16.795   1.397   0.265
    1QTZ  Si10210277  17.340   1.283   0.651
    1QTZ  Si10210278  16.993   1.030   0.660
    1QTZ  Si10210279  17.505   1.021   1.087
    1QTZ  Si10210280  17.238   1.035   0.105
    1QTZ  O102810281  17.027   1.049   2.413
    1QTZ  O102810282  17.577   1.001   1.534
    1QTZ  O102810283  17.272   0.932   2.065
    1QTZ  O102810284  16.829   1.385   2.009
    1QTZ  O102810285  17.431   1.407   2.475
    1QTZ  O102810286  17.173   1.363   1.567
    1QTZ  O102810287  17.164   1.345   2.555
    1QTZ  O102810288  16.914   1.307   1.598
    1QTZ  O102810289  17.453   1.247   2.058
    1QTZ  O102910290  16.941   1.114   2.157
    1QTZ  O102910291  17.531   1.052   1.258
    1QTZ  O102910292  17.270   1.033   1.773
    1QTZ  O102910293  16.960   1.305   2.379
    1QTZ  O102910294  17.218   1.176   2.031
    1QTZ  O102910295  16.812   1.136   1.918
    1QTZ  O102910296  17.419   1.161   2.564
    1QTZ  O102910297  17.098   1.116   1.552
    1QTZ  O102910298  17.337   1.053   1.476
    1QTZ  O102910299  16.774   1.100   2.388
    1QTZ  O103010300  17.051   1.008   1.928
    1QTZ  O103010301  20.025   1.328   1.768
    1QTZ  O103010302  17.291   1.250   2.311
    1QTZ  O103010303  17.023   1.302   1.333
    1QTZ  Si10310304  17.491   1.094   1.423
    1QTZ  Si10310305  16.924   1.148   2.325
    1QTZ  Si10310306  17.213   1.034   1.939
    1QTZ  Si10310307  16.727   1.278   1.930
    1QTZ  Si10310308  17.316   1.283   2.485
    1QTZ  Si10310309  17.049   1.270   1.503
    1QTZ  Si10310310  17.006   1.410   2.505
    1QTZ  Si10310311  16.751   1.347   1.605
    1QTZ  Si10310312  17.305   1.278   2.133
    1QTZ  Si10310313  16.907   1.034   2.008
    1QTZ  Si10310314  17.535   1.033   2.526
    1QTZ  Si10310315  17.227   1.019   1.602
    1QTZ  O103110316  17.040   1.500   1.106
    1QTZ  O103110317  17.594   1.555   0.211
    1QTZ  O103110318  17.336   1.425   0.559
    1QTZ  O103110319  16.908   1.884   0.672
    1QTZ  O103210320  17.456   1.863   1.037
    1QTZ  O103210321  17.136   1.909   0.025
    1QTZ  O103210322  17.218   1.799   1.113
    1QTZ  O103210323  16.946   1.848   0.201
    1QTZ  O103210324  17.502   1.753   0.661
    1QTZ  O103210325  17.031   1.577   0.822
    1QTZ  O103210326  17.264   1.500   0.279
    1QTZ  O103210327  16.978   1.749   1.056
    1QTZ  O103210328  17.280   1.679   0.525
    1QTZ  O103210329  16.892   1.635   0.580
    1QTZ  O103310330  17.381   1.612   1.023
    1QTZ  O103310331  17.123   1.656   0.114
    1QTZ  O103310332  17.391   1.595   0.034
    1QTZ  O103310333  16.806   1.556   0.992
    1QTZ  O103310334  17.102   1.498   0.531
    1QTZ  O103310335  16.779   1.862   0.433
    1QTZ  O103310336  17.283   1.780   0.817
    1QTZ  O103310337  16.863   1.720   0.003
    1QTZ  Si10310338  17.549   1.660   0.084
    1QTZ  Si10310339  16.969   1.596   0.985
    1QTZ  Si10310340  17.249   1.527   0.456
    1QTZ  Si10310341  16.813   1.782   0.582
    1QTZ  Si10310342  17.328   1.766   0.987
    1QTZ  Si10310343  17.020   1.781   0.063
    1QTZ  Si10310344  17.064   1.841   1.166
    1QTZ  Si10310345  16.796   1.895   0.265
    1QTZ  Si10310346  17.339   1.780   0.650
    1QTZ  Si10310347  16.992   1.527   0.660
    1QTZ  Si10310348  17.505   1.519   1.087
    1QTZ  Si10310349  17.238   1.532   0.105
    1QTZ  O103510350  17.027   1.547   2.413
    1QTZ  O103510351  17.577   1.499   1.533
    1QTZ  O103510352  17.275   1.430   2.064
    1QTZ  O103510353  16.828   1.883   2.009
    1QTZ  O103510354  17.432   1.904   2.475
    1QTZ  O103510355  17.174   1.861   1.566
    1QTZ  O103510356  17.163   1.844   2.556
    1QTZ  O103510357  16.915   1.805   1.597
    1QTZ  O103510358  17.452   1.749   2.060
    1QTZ  O103510359  16.942   1.612   2.157
    1QTZ  O103610360  17.532   1.551   1.257
    1QTZ  O103610361  17.271   1.531   1.772
    1QTZ  O103610362  16.960   1.802   2.379
    1QTZ  O103610363  17.218   1.674   2.031
    1QTZ  O103610364  16.815   1.634   1.917
    1QTZ  O103610365  17.418   1.659   2.565
    1QTZ  O103610366  17.099   1.614   1.551
    1QTZ  O103610367  17.338   1.549   1.476
    1QTZ  O103610368  16.774   1.598   2.388
    1QTZ  O103610369  17.053   1.504   1.929
    1QTZ  O103710370  20.026   1.825   1.767
    1QTZ  O103710371  17.290   1.749   2.311
    1QTZ  O103710372  17.024   1.800   1.332
    1QTZ  Si10310373  17.491   1.592   1.423
    1QTZ  Si10310374  16.925   1.645   2.325
    1QTZ  Si10310375  17.216   1.531   1.939
    1QTZ  Si10310376  16.728   1.774   1.929
    1QTZ  Si10310377  17.316   1.781   2.485
    1QTZ  Si10310378  17.050   1.768   1.503
    1QTZ  Si10310379  17.005   1.908   2.506
    1QTZ  Si10310380  16.752   1.845   1.604
    1QTZ  Si10310381  17.304   1.776   2.133
    1QTZ  Si10310382  16.909   1.531   2.008
    1QTZ  Si10310383  17.534   1.531   2.526
    1QTZ  Si10310384  17.227   1.517   1.602
    1QTZ  O103810385  17.041   1.998   1.106
    1QTZ  O103810386  17.594   2.052   0.210
    1QTZ  O103810387  17.336   1.923   0.558
    1QTZ  O103810388  16.905   2.382   0.672
    1QTZ  O103810389  17.457   2.361   1.038
    1QTZ  O103910390  17.136   2.406   0.025
    1QTZ  O103910391  17.218   2.297   1.113
    1QTZ  O103910392  16.946   2.345   0.201
    1QTZ  O103910393  17.504   2.253   0.662
    1QTZ  O103910394  17.032   2.076   0.822
    1QTZ  O103910395  17.265   1.998   0.279
    1QTZ  O103910396  16.978   2.246   1.056
    1QTZ  O103910397  17.283   2.177   0.525
    1QTZ  O103910398  16.892   2.133   0.580
    1QTZ  O103910399  17.381   2.110   1.023
    1QTZ  O104010400  17.123   2.154   0.114
    1QTZ  O104010401  17.391   2.093   0.034
    1QTZ  O104010402  16.807   2.054   0.992
    1QTZ  O104010403  17.102   1.998   0.530
    1QTZ  O104010404  16.778   2.359   0.432
    1QTZ  O104010405  17.284   2.278   0.817
    1QTZ  O104010406  16.863   2.217   0.003
    1QTZ  Si10410407  17.549   2.158   0.084
    1QTZ  Si10410408  16.970   2.094   0.985
    1QTZ  Si10410409  17.251   2.025   0.456
    1QTZ  Si10410410  16.811   2.279   0.581
    1QTZ  Si10410411  17.328   2.264   0.987
    1QTZ  Si10410412  17.020   2.279   0.063
    1QTZ  Si10410413  17.064   2.339   1.166
    1QTZ  Si10410414  16.796   2.393   0.264
    1QTZ  Si10410415  17.341   2.279   0.650
    1QTZ  Si10410416  16.993   2.026   0.659
    1QTZ  Si10410417  17.505   2.017   1.086
    1QTZ  Si10410418  17.239   2.030   0.105
    1QTZ  O104110419  17.027   2.045   2.413
    1QTZ  O104210420  17.577   1.997   1.533
    1QTZ  O104210421  17.272   1.928   2.065
    1QTZ  O104210422  16.829   2.381   2.009
    1QTZ  O104210423  17.432   2.402   2.475
    1QTZ  O104210424  17.174   2.359   1.566
    1QTZ  O104210425  17.164   2.341   2.555
    1QTZ  O104210426  16.914   2.302   1.597
    1QTZ  O104210427  17.453   2.244   2.058
    1QTZ  O104210428  16.941   2.109   2.157
    1QTZ  O104210429  17.531   2.048   1.257
    1QTZ  O104310430  17.270   2.029   1.772
    1QTZ  O104310431  16.960   2.300   2.379
    1QTZ  O104310432  17.218   2.172   2.030
    1QTZ  O104310433  16.813   2.132   1.917
    1QTZ  O104310434  17.419   2.157   2.564
    1QTZ  O104310435  17.098   2.112   1.551
    1QTZ  O104310436  17.337   2.048   1.476
    1QTZ  O104310437  16.774   2.096   2.388
    1QTZ  O104310438  17.051   2.003   1.927
    1QTZ  O104310439  20.025   2.324   1.767
    1QTZ  O104410440  17.291   2.246   2.310
    1QTZ  O104410441  17.023   2.298   1.332
    1QTZ  Si10410442  17.491   2.090   1.423
    1QTZ  Si10410443  16.924   2.143   2.324
    1QTZ  Si10410444  17.214   2.029   1.939
    1QTZ  Si10410445  16.727   2.273   1.930
    1QTZ  Si10410446  17.316   2.279   2.484
    1QTZ  Si10410447  17.049   2.266   1.503
    1QTZ  Si10410448  17.006   2.406   2.505
    1QTZ  Si10410449  16.751   2.343   1.605
    1QTZ  Si10410450  17.305   2.273   2.133
    1QTZ  Si10410451  16.908   2.029   2.007
    1QTZ  Si10410452  17.535   2.029   2.526
    1QTZ  Si10410453  17.227   2.015   1.602
    1QTZ  O104510454  17.040   2.496   1.106
    1QTZ  O104510455  17.594   2.550   0.210
    1QTZ  O104510456  17.337   2.421   0.558
    1QTZ  O104510457  16.907   2.880   0.671
    1QTZ  O104510458  17.456   2.859   1.037
    1QTZ  O104510459  17.136   2.904   0.024
    1QTZ  O104610460  17.218   2.794   1.113
    1QTZ  O104610461  16.946   2.843   0.200
    1QTZ  O104610462  17.502   2.749   0.660
    1QTZ  O104610463  17.032   2.573   0.822
    1QTZ  O104610464  17.264   2.495   0.278
    1QTZ  O104610465  16.978   2.744   1.056
    1QTZ  O104610466  17.280   2.674   0.525
    1QTZ  O104610467  16.893   2.631   0.579
    1QTZ  O104610468  17.381   2.608   1.022
    1QTZ  O104610469  17.123   2.652   0.114
    1QTZ  O104710470  17.391   2.591   0.034
    1QTZ  O104710471  16.806   2.552   0.992
    1QTZ  O104710472  17.102   2.493   0.531
    1QTZ  O104710473  16.779   2.857   0.432
    1QTZ  O104710474  17.284   2.776   0.816
    1QTZ  O104710475  16.863   2.715   0.002
    1QTZ  Si10410476  17.549   2.656   0.084
    1QTZ  Si10410477  16.969   2.592   0.985
    1QTZ  Si10410478  17.250   2.522   0.456
    1QTZ  Si10410479  16.813   2.777   0.581
    1QTZ  Si10410480  17.328   2.762   0.987
    1QTZ  Si10410481  17.020   2.777   0.063
    1QTZ  Si10410482  17.064   2.837   1.165
    1QTZ  Si10410483  16.796   2.891   0.264
    1QTZ  Si10410484  17.339   2.776   0.649
    1QTZ  Si10410485  16.993   2.522   0.659
    1QTZ  Si10410486  17.505   2.515   1.086
    1QTZ  Si10410487  17.238   2.528   0.104
    1QTZ  O104810488  17.027   2.543   2.412
    1QTZ  O104810489  17.577   2.495   1.533
    1QTZ  O104910490  17.275   2.425   2.064
    1QTZ  O104910491  16.828   2.878   2.009
    1QTZ  O104910492  17.432   2.900   2.475
    1QTZ  O104910493  17.174   2.857   1.566
    1QTZ  O104910494  17.164   2.839   2.555
    1QTZ  O104910495  16.915   2.800   1.597
    1QTZ  O104910496  17.453   2.743   2.059
    1QTZ  O104910497  16.942   2.607   2.156
    1QTZ  O104910498  17.532   2.546   1.257
    1QTZ  O104910499  17.271   2.527   1.772
    1QTZ  O105010500  16.960   2.798   2.379
    1QTZ  O105010501  17.218   2.669   2.030
    1QTZ  O105010502  16.814   2.629   1.917
    1QTZ  O105010503  17.418   2.654   2.564
    1QTZ  O105010504  17.099   2.610   1.551
    1QTZ  O105010505  17.338   2.545   1.475
    1QTZ  O105010506  16.774   2.594   2.387
    1QTZ  O105010507  17.052   2.500   1.928
    1QTZ  O105010508  20.026   2.821   1.767
    1QTZ  O105010509  17.290   2.744   2.310
    1QTZ  O105110510  17.024   2.796   1.331
    1QTZ  Si10510511  17.491   2.588   1.423
    1QTZ  Si10510512  16.925   2.641   2.324
    1QTZ  Si10510513  17.215   2.527   1.939
    1QTZ  Si10510514  16.728   2.771   1.929
    1QTZ  Si10510515  17.316   2.776   2.484
    1QTZ  Si10510516  17.050   2.764   1.502
    1QTZ  Si10510517  17.006   2.904   2.505
    1QTZ  Si10510518  16.752   2.840   1.604
    1QTZ  Si10510519  17.305   2.771   2.133
    1QTZ  Si10510520  16.909   2.527   2.007
    1QTZ  Si10510521  17.535   2.527   2.526
    1QTZ  Si10510522  17.227   2.513   1.601
    1QTZ  O105210523  17.041   2.994   1.105
    1QTZ  O105210524  17.594   3.048   0.210
    1QTZ  O105210525  17.336   2.919   0.558
    1QTZ  O105210526  16.906   3.377   0.672
    1QTZ  O105210527  17.457   3.357   1.037
    1QTZ  O105210528  17.136   3.402   0.025
    1QTZ  O105210529  17.218   3.293   1.113
    1QTZ  O105310530  16.946   3.341   0.201
    1QTZ  O105310531  17.503   3.248   0.661
    1QTZ  O105310532  17.032   3.071   0.821
    1QTZ  O105310533  17.264   2.994   0.278
    1QTZ  O105310534  16.978   3.242   1.056
    1QTZ  O105310535  17.282   3.172   0.524
    1QTZ  O105310536  16.892   3.129   0.579
    1QTZ  O105310537  17.381   3.106   1.023
    1QTZ  O105310538  17.123   3.150   0.113
    1QTZ  O105310539  17.391   3.089   0.033
    1QTZ  O105410540  16.807   3.050   0.991
    1QTZ  O105410541  17.102   2.993   0.530
    1QTZ  O105410542  16.778   3.355   0.432
    1QTZ  O105410543  17.284   3.273   0.816
    1QTZ  O105410544  16.863   3.213   0.002
    1QTZ  Si10510545  17.549   3.154   0.083
    1QTZ  Si10510546  16.970   3.090   0.984
    1QTZ  Si10510547  17.250   3.021   0.455
    1QTZ  Si10510548  16.811   3.275   0.581
    1QTZ  Si10510549  17.328   3.259   0.987
    1QTZ  Si10510550  17.020   3.274   0.063
    1QTZ  Si10510551  17.064   3.335   1.166
    1QTZ  Si10510552  16.796   3.388   0.264
    1QTZ  Si10510553  17.341   3.274   0.650
    1QTZ  Si10510554  16.993   3.021   0.659
    1QTZ  Si10510555  17.505   3.013   1.086
    1QTZ  Si10510556  17.238   3.026   0.104
    1QTZ  O105510557  17.027   3.040   2.412
    1QTZ  O105510558  17.577   2.992   1.533
    1QTZ  O105510559  17.274   2.923   2.064
    1QTZ  O105610560  16.829   3.376   2.009
    1QTZ  O105610561  17.432   3.398   2.475
    1QTZ  O105610562  17.174   3.354   1.566
    1QTZ  O105610563  17.164   3.337   2.555
    1QTZ  O105610564  16.914   3.298   1.597
    1QTZ  O105610565  17.452   3.240   2.058
    1QTZ  O105610566  16.942   3.105   2.156
    1QTZ  O105610567  17.531   3.044   1.257
    1QTZ  O105610568  17.271   3.024   1.772
    1QTZ  O105610569  16.960   3.296   2.379
    1QTZ  O105710570  17.218   3.167   2.030
    1QTZ  O105710571  16.814   3.127   1.917
    1QTZ  O105710572  17.418   3.152   2.564
    1QTZ  O105710573  17.099   3.107   1.551
    1QTZ  O105710574  17.337   3.043   1.476
    1QTZ  O105710575  16.774   3.091   2.388
    1QTZ  O105710576  17.052   2.998   1.928
    1QTZ  O105710577  20.026   3.319   1.767
    1QTZ  O105710578  17.290   3.242   2.310
    1QTZ  O105710579  17.023   3.293   1.332
    1QTZ  Si10510580  17.491   3.085   1.423
    1QTZ  Si10510581  16.924   3.139   2.324
    1QTZ  Si10510582  17.215   3.025   1.939
    1QTZ  Si10510583  16.728   3.268   1.929
    1QTZ  Si10510584  17.316   3.274   2.484
    1QTZ  Si10510585  17.050   3.261   1.502
    1QTZ  Si10510586  17.005   3.402   2.505
    1QTZ  Si10510587  16.751   3.338   1.604
    1QTZ  Si10510588  17.304   3.269   2.133
    1QTZ  Si10510589  16.908   3.025   2.007
    1QTZ  Si10510590  17.535   3.025   2.526
    1QTZ  Si10510591  17.227   3.010   1.601
    1QTZ  O105910592  17.875   0.007   1.106
    1QTZ  O105910593  18.428   0.061   0.210
    1QTZ  O105910594  18.171   3.416   0.558
    1QTZ  O105910595  17.740   0.391   0.673
    1QTZ  O105910596  18.291   0.370   1.038
    1QTZ  O105910597  17.970   0.416   0.025
    1QTZ  O105910598  18.052   0.306   1.114
    1QTZ  O105910599  17.780   0.355   0.201
    1QTZ  O106010600  18.337   0.261   0.662
    1QTZ  O106010601  17.866   0.085   0.822
    1QTZ  O106010602  18.098   0.007   0.279
    1QTZ  O106010603  17.812   0.255   1.056
    1QTZ  O106010604  17.527   0.304   0.177
    1QTZ  O106010605  18.116   0.186   0.525
    1QTZ  O106010606  17.726   0.142   0.580
    1QTZ  O106010607  18.215   0.119   1.024
    1QTZ  O106010608  17.957   0.163   0.114
    1QTZ  O106010609  18.225   0.103   0.034
    1QTZ  O106110610  17.641   0.063   0.992
    1QTZ  O106110611  17.936   0.006   0.531
    1QTZ  O106110612  17.613   0.369   0.433
    1QTZ  O106110613  18.118   0.287   0.817
    1QTZ  O106110614  17.697   0.227   0.003
    1QTZ  Si10610615  18.383   0.167   0.084
    1QTZ  Si10610616  17.804   0.103   0.985
    1QTZ  Si10610617  18.084   0.034   0.456
    1QTZ  Si10610618  17.646   0.289   0.582
    1QTZ  Si10610619  18.162   0.273   0.988
    1QTZ  Si10610620  17.854   0.288   0.064
    1QTZ  Si10610621  17.898   0.348   1.166
    1QTZ  Si10610622  17.630   0.402   0.265
    1QTZ  Si10610623  18.175   0.287   0.650
    1QTZ  Si10610624  17.827   0.035   0.660
    1QTZ  Si10610625  18.339   0.026   1.087
    1QTZ  Si10610626  18.072   0.040   0.105
    1QTZ  O106210627  17.862   0.054   2.413
    1QTZ  O106210628  18.411   0.006   1.533
    1QTZ  O106210629  18.109   3.421   2.064
    1QTZ  O106310630  17.663   0.389   2.009
    1QTZ  O106310631  18.266   0.411   2.476
    1QTZ  O106310632  18.008   0.368   1.566
    1QTZ  O106310633  17.998   0.350   2.556
    1QTZ  O106310634  17.749   0.311   1.598
    1QTZ  O106310635  18.287   0.255   2.059
    1QTZ  O106310636  17.776   0.118   2.157
    1QTZ  O106310637  18.366   0.057   1.258
    1QTZ  O106310638  18.106   0.038   1.773
    1QTZ  O106310639  17.794   0.309   2.380
    1QTZ  O106410640  17.515   0.255   1.483
    1QTZ  O106410641  18.052   0.181   2.031
    1QTZ  O106410642  17.649   0.140   1.917
    1QTZ  O106410643  18.253   0.166   2.565
    1QTZ  O106410644  17.933   0.121   1.552
    1QTZ  O106410645  18.172   0.057   1.476
    1QTZ  O106410646  17.608   0.105   2.388
    1QTZ  O106410647  17.887   0.011   1.929
    1QTZ  O106410648  17.523   0.332   1.767
    1QTZ  O106410649  18.124   0.255   2.311
    1QTZ  O106510650  17.858   0.306   1.332
    1QTZ  Si10610651  18.325   0.099   1.424
    1QTZ  Si10610652  17.759   0.152   2.325
    1QTZ  Si10610653  18.049   0.038   1.940
    1QTZ  Si10610654  17.562   0.281   1.930
    1QTZ  Si10610655  18.150   0.288   2.485
    1QTZ  Si10610656  17.884   0.275   1.503
    1QTZ  Si10610657  17.839   0.415   2.506
    1QTZ  Si10610658  17.586   0.351   1.605
    1QTZ  Si10610659  18.138   0.283   2.134
    1QTZ  Si10610660  17.743   0.038   2.008
    1QTZ  Si10610661  18.369   0.038   2.526
    1QTZ  Si10610662  18.062   0.024   1.602
    1QTZ  O106610663  17.874   0.505   1.107
    1QTZ  O106610664  18.428   0.559   0.211
    1QTZ  O106610665  18.171   0.430   0.559
    1QTZ  O106610666  17.740   0.889   0.673
    1QTZ  O106610667  18.290   0.868   1.039
    1QTZ  O106610668  17.970   0.913   0.025
    1QTZ  O106610669  18.052   0.804   1.114
    1QTZ  O106710670  17.780   0.852   0.201
    1QTZ  O106710671  18.337   0.759   0.662
    1QTZ  O106710672  17.866   0.582   0.823
    1QTZ  O106710673  18.098   0.505   0.279
    1QTZ  O106710674  17.812   0.753   1.057
    1QTZ  O106710675  17.527   0.801   0.177
    1QTZ  O106710676  18.116   0.684   0.526
    1QTZ  O106710677  17.727   0.640   0.580
    1QTZ  O106710678  18.215   0.617   1.024
    1QTZ  O106710679  17.956   0.661   0.115
    1QTZ  O106810680  18.225   0.600   0.035
    1QTZ  O106810681  17.640   0.561   0.992
    1QTZ  O106810682  17.936   0.503   0.532
    1QTZ  O106810683  17.613   0.866   0.433
    1QTZ  O106810684  18.118   0.785   0.818
    1QTZ  O106810685  17.697   0.724   0.003
    1QTZ  Si10610686  18.383   0.665   0.084
    1QTZ  Si10610687  17.803   0.601   0.985
    1QTZ  Si10610688  18.084   0.532   0.457
    1QTZ  Si10610689  17.646   0.786   0.582
    1QTZ  Si10610690  18.162   0.771   0.988
    1QTZ  Si10610691  17.854   0.786   0.064
    1QTZ  Si10610692  17.898   0.846   1.167
    1QTZ  Si10610693  17.630   0.900   0.265
    1QTZ  Si10610694  18.174   0.785   0.651
    1QTZ  Si10610695  17.827   0.532   0.660
    1QTZ  Si10610696  18.339   0.524   1.087
    1QTZ  Si10610697  18.072   0.537   0.105
    1QTZ  O106910698  17.861   0.551   2.413
    1QTZ  O106910699  18.411   0.504   1.534
    1QTZ  O107010700  18.106   0.435   2.065
    1QTZ  O107010701  17.663   0.887   2.010
    1QTZ  O107010702  18.266   0.909   2.476
    1QTZ  O107010703  18.008   0.865   1.567
    1QTZ  O107010704  17.998   0.848   2.556
    1QTZ  O107010705  17.748   0.809   1.598
    1QTZ  O107010706  18.287   0.750   2.059
    1QTZ  O107010707  17.775   0.616   2.157
    1QTZ  O107010708  18.366   0.555   1.258
    1QTZ  O107010709  18.105   0.536   1.773
    1QTZ  O107110710  17.794   0.807   2.380
    1QTZ  O107110711  17.514   0.753   1.484
    1QTZ  O107110712  18.052   0.679   2.031
    1QTZ  O107110713  17.647   0.638   1.918
    1QTZ  O107110714  18.253   0.664   2.565
    1QTZ  O107110715  17.933   0.619   1.552
    1QTZ  O107110716  18.172   0.555   1.476
    1QTZ  O107110717  17.608   0.603   2.389
    1QTZ  O107110718  17.885   0.510   1.928
    1QTZ  O107110719  17.523   0.830   1.768
    1QTZ  O107210720  18.125   0.753   2.311
    1QTZ  O107210721  17.857   0.805   1.333
    1QTZ  Si10710722  18.325   0.597   1.424
    1QTZ  Si10710723  17.758   0.650   2.325
    1QTZ  Si10710724  18.048   0.536   1.940
    1QTZ  Si10710725  17.561   0.780   1.931
    1QTZ  Si10710726  18.150   0.785   2.485
    1QTZ  Si10710727  17.884   0.773   1.504
    1QTZ  Si10710728  17.840   0.912   2.506
    1QTZ  Si10710729  17.585   0.849   1.605
    1QTZ  Si10710730  18.139   0.780   2.134
    1QTZ  Si10710731  17.742   0.536   2.008
    1QTZ  Si10710732  18.369   0.536   2.527
    1QTZ  Si10710733  18.061   0.522   1.602
    1QTZ  O107310734  17.874   1.002   1.107
    1QTZ  O107310735  18.428   1.057   0.211
    1QTZ  O107310736  18.170   0.928   0.559
    1QTZ  O107310737  17.741   1.387   0.672
    1QTZ  O107310738  18.291   1.366   1.038
    1QTZ  O107310739  17.970   1.411   0.025
    1QTZ  O107410740  18.052   1.301   1.114
    1QTZ  O107410741  17.780   1.350   0.202
    1QTZ  O107410742  18.337   1.256   0.661
    1QTZ  O107410743  17.866   1.079   0.823
    1QTZ  O107410744  18.098   1.002   0.279
    1QTZ  O107410745  17.812   1.251   1.057
    1QTZ  O107410746  17.527   1.299   0.177
    1QTZ  O107410747  18.114   1.181   0.525
    1QTZ  O107410748  17.727   1.138   0.581
    1QTZ  O107410749  18.215   1.115   1.024
    1QTZ  O107510750  17.957   1.159   0.115
    1QTZ  O107510751  18.225   1.098   0.035
    1QTZ  O107510752  17.640   1.059   0.992
    1QTZ  O107510753  17.936   1.000   0.532
    1QTZ  O107510754  17.613   1.364   0.433
    1QTZ  O107510755  18.118   1.282   0.817
    1QTZ  O107510756  17.697   1.222   0.003
    1QTZ  Si10710757  18.383   1.163   0.084
    1QTZ  Si10710758  17.803   1.099   0.985
    1QTZ  Si10710759  18.084   1.029   0.457
    1QTZ  Si10710760  17.647   1.284   0.582
    1QTZ  Si10710761  18.162   1.268   0.988
    1QTZ  Si10710762  17.854   1.283   0.064
    1QTZ  Si10710763  17.898   1.344   1.167
    1QTZ  Si10710764  17.630   1.397   0.265
    1QTZ  Si10710765  18.174   1.283   0.650
    1QTZ  Si10710766  17.827   1.029   0.660
    1QTZ  Si10710767  18.339   1.022   1.087
    1QTZ  Si10710768  18.072   1.035   0.105
    1QTZ  O107610769  17.862   1.049   2.413
    1QTZ  O107710770  18.411   1.001   1.534
    1QTZ  O107710771  18.110   0.932   2.065
    1QTZ  O107710772  17.662   1.385   2.009
    1QTZ  O107710773  18.266   1.407   2.476
    1QTZ  O107710774  18.008   1.363   1.566
    1QTZ  O107710775  17.997   1.346   2.556
    1QTZ  O107710776  17.749   1.307   1.598
    1QTZ  O107710777  18.286   1.251   2.060
    1QTZ  O107710778  17.776   1.114   2.157
    1QTZ  O107710779  18.366   1.053   1.258
    1QTZ  O107810780  18.106   1.034   1.773
    1QTZ  O107810781  17.794   1.305   2.380
    1QTZ  O107810782  17.515   1.251   1.483
    1QTZ  O107810783  18.052   1.176   2.032
    1QTZ  O107810784  17.649   1.136   1.917
    1QTZ  O107810785  18.252   1.162   2.565
    1QTZ  O107810786  17.933   1.117   1.552
    1QTZ  O107810787  18.172   1.051   1.476
    1QTZ  O107810788  17.608   1.100   2.388
    1QTZ  O107810789  17.887   1.006   1.929
    1QTZ  O107910790  17.523   1.327   1.767
    1QTZ  O107910791  18.124   1.251   2.311
    1QTZ  O107910792  17.858   1.302   1.332
    1QTZ  Si10710793  18.325   1.094   1.424
    1QTZ  Si10710794  17.759   1.147   2.325
    1QTZ  Si10710795  18.050   1.034   1.940
    1QTZ  Si10710796  17.562   1.276   1.930
    1QTZ  Si10710797  18.150   1.283   2.485
    1QTZ  Si10710798  17.884   1.271   1.503
    1QTZ  Si10710799  17.839   1.411   2.506
    1QTZ  Si10810800  17.586   1.347   1.605
    1QTZ  Si10810801  18.138   1.279   2.134
    1QTZ  Si10810802  17.744   1.033   2.008
    1QTZ  Si10810803  18.369   1.034   2.527
    1QTZ  Si10810804  18.062   1.019   1.603
    1QTZ  O108010805  17.875   1.500   1.106
    1QTZ  O108010806  18.428   1.555   0.211
    1QTZ  O108010807  18.171   1.425   0.559
    1QTZ  O108010808  17.739   1.884   0.673
    1QTZ  O108010809  18.291   1.863   1.038
    1QTZ  O108110810  17.970   1.908   0.025
    1QTZ  O108110811  18.052   1.800   1.114
    1QTZ  O108110812  17.780   1.848   0.201
    1QTZ  O108110813  18.338   1.755   0.662
    1QTZ  O108110814  17.866   1.578   0.822
    1QTZ  O108110815  18.099   1.500   0.279
    1QTZ  O108110816  17.812   1.749   1.057
    1QTZ  O108110817  17.527   1.797   0.177
    1QTZ  O108110818  18.117   1.679   0.525
    1QTZ  O108110819  17.727   1.636   0.580
    1QTZ  O108210820  18.215   1.612   1.024
    1QTZ  O108210821  17.957   1.656   0.114
    1QTZ  O108210822  18.225   1.596   0.034
    1QTZ  O108210823  17.641   1.556   0.992
    1QTZ  O108210824  17.937   1.499   0.531
    1QTZ  O108210825  17.613   1.862   0.432
    1QTZ  O108210826  18.118   1.780   0.817
    1QTZ  O108210827  17.697   1.719   0.003
    1QTZ  Si10810828  18.383   1.660   0.084
    1QTZ  Si10810829  17.804   1.597   0.985
    1QTZ  Si10810830  18.085   1.528   0.457
    1QTZ  Si10810831  17.646   1.781   0.582
    1QTZ  Si10810832  18.162   1.766   0.988
    1QTZ  Si10810833  17.854   1.781   0.063
    1QTZ  Si10810834  17.898   1.842   1.167
    1QTZ  Si10810835  17.630   1.895   0.265
    1QTZ  Si10810836  18.175   1.781   0.651
    1QTZ  Si10810837  17.827   1.528   0.660
    1QTZ  Si10810838  18.339   1.519   1.087
    1QTZ  Si10810839  18.073   1.533   0.105
    1QTZ  O108410840  17.861   1.547   2.413
    1QTZ  O108410841  18.411   1.499   1.534
    1QTZ  O108410842  18.106   1.430   2.065
    1QTZ  O108410843  17.663   1.883   2.009
    1QTZ  O108410844  18.266   1.905   2.475
    1QTZ  O108410845  18.008   1.861   1.567
    1QTZ  O108410846  17.998   1.843   2.555
    1QTZ  O108410847  17.748   1.805   1.598
    1QTZ  O108410848  18.287   1.746   2.058
    1QTZ  O108410849  17.775   1.611   2.157
    1QTZ  O108510850  18.366   1.550   1.258
    1QTZ  O108510851  18.105   1.531   1.773
    1QTZ  O108510852  17.794   1.802   2.379
    1QTZ  O108510853  17.514   1.748   1.484
    1QTZ  O108510854  18.052   1.674   2.031
    1QTZ  O108510855  17.646   1.634   1.918
    1QTZ  O108510856  18.253   1.659   2.565
    1QTZ  O108510857  17.932   1.614   1.552
    1QTZ  O108510858  18.171   1.551   1.476
    1QTZ  O108510859  17.608   1.598   2.389
    1QTZ  O108610860  17.885   1.505   1.928
    1QTZ  O108610861  17.523   1.826   1.768
    1QTZ  O108610862  18.125   1.749   2.311
    1QTZ  O108610863  17.857   1.800   1.333
    1QTZ  Si10810864  18.325   1.592   1.424
    1QTZ  Si10810865  17.758   1.645   2.325
    1QTZ  Si10810866  18.048   1.532   1.940
    1QTZ  Si10810867  17.561   1.776   1.930
    1QTZ  Si10810868  18.150   1.781   2.485
    1QTZ  Si10810869  17.884   1.768   1.503
    1QTZ  Si10810870  17.840   1.908   2.505
    1QTZ  Si10810871  17.585   1.845   1.605
    1QTZ  Si10810872  18.139   1.776   2.133
    1QTZ  Si10810873  17.741   1.532   2.008
    1QTZ  Si10810874  18.369   1.531   2.526
    1QTZ  Si10810875  18.061   1.517   1.602
    1QTZ  O108710876  17.874   1.998   1.107
    1QTZ  O108710877  18.428   2.052   0.210
    1QTZ  O108710878  18.171   1.923   0.559
    1QTZ  O108710879  17.742   2.382   0.672
    1QTZ  O108810880  18.291   2.361   1.037
    1QTZ  O108810881  17.970   2.406   0.025
    1QTZ  O108810882  18.052   2.297   1.113
    1QTZ  O108810883  17.781   2.346   0.201
    1QTZ  O108810884  18.336   2.251   0.661
    1QTZ  O108810885  17.866   2.075   0.822
    1QTZ  O108810886  18.098   1.997   0.279
    1QTZ  O108810887  17.812   2.246   1.056
    1QTZ  O108810888  17.527   2.295   0.177
    1QTZ  O108810889  18.114   2.177   0.525
    1QTZ  O108910890  17.727   2.133   0.580
    1QTZ  O108910891  18.216   2.110   1.023
    1QTZ  O108910892  17.957   2.154   0.114
    1QTZ  O108910893  18.225   2.093   0.034
    1QTZ  O108910894  17.640   2.054   0.992
    1QTZ  O108910895  17.936   1.995   0.531
    1QTZ  O108910896  17.613   2.359   0.432
    1QTZ  O108910897  18.118   2.278   0.817
    1QTZ  O108910898  17.697   2.217   0.003
    1QTZ  Si10810899  18.383   2.158   0.084
    1QTZ  Si10910900  17.803   2.094   0.985
    1QTZ  Si10910901  18.084   2.025   0.456
    1QTZ  Si10910902  17.647   2.280   0.582
    1QTZ  Si10910903  18.162   2.264   0.987
    1QTZ  Si10910904  17.854   2.279   0.063
    1QTZ  Si10910905  17.898   2.339   1.166
    1QTZ  Si10910906  17.630   2.393   0.264
    1QTZ  Si10910907  18.174   2.278   0.650
    1QTZ  Si10910908  17.827   2.025   0.660
    1QTZ  Si10910909  18.340   2.017   1.087
    1QTZ  Si10910910  18.072   2.030   0.105
    1QTZ  O109110911  17.862   2.045   2.413
    1QTZ  O109110912  18.412   1.997   1.533
    1QTZ  O109110913  18.109   1.928   2.064
    1QTZ  O109110914  17.662   2.380   2.009
    1QTZ  O109110915  18.266   2.403   2.475
    1QTZ  O109110916  18.008   2.359   1.566
    1QTZ  O109110917  17.998   2.341   2.556
    1QTZ  O109110918  17.749   2.303   1.597
    1QTZ  O109110919  18.287   2.246   2.059
    1QTZ  O109210920  17.776   2.109   2.157
    1QTZ  O109210921  18.366   2.049   1.257
    1QTZ  O109210922  18.106   2.029   1.772
    1QTZ  O109210923  17.794   2.300   2.379
    1QTZ  O109210924  17.515   2.246   1.483
    1QTZ  O109210925  18.053   2.172   2.031
    1QTZ  O109210926  17.649   2.131   1.917
    1QTZ  O109210927  18.253   2.157   2.565
    1QTZ  O109210928  17.933   2.112   1.551
    1QTZ  O109210929  18.172   2.047   1.476
    1QTZ  O109310930  17.608   2.096   2.388
    1QTZ  O109310931  17.887   2.002   1.928
    1QTZ  O109310932  17.524   2.323   1.767
    1QTZ  O109310933  18.124   2.247   2.311
    1QTZ  O109310934  17.858   2.298   1.332
    1QTZ  Si10910935  18.325   2.090   1.423
    1QTZ  Si10910936  17.759   2.143   2.325
    1QTZ  Si10910937  18.050   2.029   1.939
    1QTZ  Si10910938  17.562   2.272   1.929
    1QTZ  Si10910939  18.150   2.279   2.485
    1QTZ  Si10910940  17.884   2.266   1.503
    1QTZ  Si10910941  17.840   2.406   2.506
    1QTZ  Si10910942  17.586   2.343   1.604
    1QTZ  Si10910943  18.139   2.274   2.133
    1QTZ  Si10910944  17.744   2.029   2.008
    1QTZ  Si10910945  18.369   2.029   2.526
    1QTZ  Si10910946  18.062   2.015   1.602
    1QTZ  O109410947  17.875   2.496   1.106
    1QTZ  O109410948  18.429   2.550   0.210
    1QTZ  O109410949  18.171   2.421   0.558
    1QTZ  O109510950  17.740   2.880   0.672
    1QTZ  O109510951  18.291   2.859   1.038
    1QTZ  O109510952  17.970   2.904   0.025
    1QTZ  O109510953  18.052   2.795   1.113
    1QTZ  O109510954  17.780   2.843   0.201
    1QTZ  O109510955  18.338   2.750   0.662
    1QTZ  O109510956  17.866   2.574   0.822
    1QTZ  O109510957  18.099   2.496   0.278
    1QTZ  O109510958  17.812   2.744   1.056
    1QTZ  O109510959  17.527   2.792   0.176
    1QTZ  O109610960  18.117   2.675   0.525
    1QTZ  O109610961  17.726   2.631   0.580
    1QTZ  O109610962  18.215   2.608   1.024
    1QTZ  O109610963  17.957   2.652   0.114
    1QTZ  O109610964  18.225   2.591   0.034
    1QTZ  O109610965  17.641   2.552   0.992
    1QTZ  O109610966  17.937   2.495   0.530
    1QTZ  O109610967  17.613   2.857   0.432
    1QTZ  O109610968  18.118   2.776   0.817
    1QTZ  O109610969  17.697   2.715   0.003
    1QTZ  Si10910970  18.383   2.656   0.084
    1QTZ  Si10910971  17.804   2.592   0.984
    1QTZ  Si10910972  18.085   2.523   0.456
    1QTZ  Si10910973  17.646   2.777   0.581
    1QTZ  Si10910974  18.162   2.762   0.988
    1QTZ  Si10910975  17.854   2.776   0.063
    1QTZ  Si10910976  17.898   2.837   1.166
    1QTZ  Si10910977  17.630   2.891   0.264
    1QTZ  Si10910978  18.175   2.776   0.650
    1QTZ  Si10910979  17.828   2.524   0.659
    1QTZ  Si10910980  18.339   2.515   1.087
    1QTZ  Si10910981  18.073   2.528   0.104
    1QTZ  O109810982  17.861   2.543   2.413
    1QTZ  O109810983  18.411   2.495   1.533
    1QTZ  O109810984  18.107   2.426   2.065
    1QTZ  O109810985  17.663   2.878   2.009
    1QTZ  O109810986  18.266   2.900   2.475
    1QTZ  O109810987  18.008   2.857   1.566
    1QTZ  O109810988  17.998   2.839   2.555
    1QTZ  O109810989  17.748   2.800   1.597
    1QTZ  O109910990  18.287   2.742   2.058
    1QTZ  O109910991  17.776   2.607   2.157
    1QTZ  O109910992  18.366   2.546   1.257
    1QTZ  O109910993  18.105   2.527   1.772
    1QTZ  O109910994  17.794   2.798   2.379
    1QTZ  O109910995  17.514   2.744   1.483
    1QTZ  O109910996  18.052   2.670   2.031
    1QTZ  O109910997  17.648   2.629   1.917
    1QTZ  O109910998  18.253   2.655   2.564
    1QTZ  O109910999  17.933   2.610   1.552
    1QTZ  O110011000  18.172   2.546   1.476
    1QTZ  O110011001  17.608   2.594   2.388
    1QTZ  O110011002  17.886   2.500   1.928
    1QTZ  O110011003  17.523   2.821   1.767
    1QTZ  O110011004  18.125   2.744   2.310
    1QTZ  O110011005  17.858   2.795   1.332
    1QTZ  Si11011006  18.325   2.588   1.423
    1QTZ  Si11011007  17.758   2.641   2.325
    1QTZ  Si11011008  18.048   2.527   1.939
    1QTZ  Si11011009  17.562   2.771   1.930
    1QTZ  Si11011010  18.150   2.776   2.484
    1QTZ  Si11011011  17.884   2.764   1.503
    1QTZ  Si11011012  17.840   2.904   2.505
    1QTZ  Si11011013  17.585   2.840   1.605
    1QTZ  Si11011014  18.139   2.771   2.133
    1QTZ  Si11011015  17.742   2.527   2.007
    1QTZ  Si11011016  18.369   2.527   2.526
    1QTZ  Si11011017  18.062   2.513   1.602
    1QTZ  O110111018  17.874   2.994   1.106
    1QTZ  O110111019  18.428   3.048   0.210
    1QTZ  O110211020  18.171   2.919   0.559
    1QTZ  O110211021  17.741   3.377   0.672
    1QTZ  O110211022  18.291   3.357   1.038
    1QTZ  O110211023  17.970   3.402   0.025
    1QTZ  O110211024  18.052   3.292   1.114
    1QTZ  O110211025  17.780   3.341   0.201
    1QTZ  O110211026  18.337   3.247   0.661
    1QTZ  O110211027  17.866   3.071   0.822
    1QTZ  O110211028  18.098   2.993   0.279
    1QTZ  O110211029  17.812   3.242   1.056
    1QTZ  O110311030  17.527   3.290   0.176
    1QTZ  O110311031  18.115   3.172   0.525
    1QTZ  O110311032  17.727   3.129   0.580
    1QTZ  O110311033  18.216   3.106   1.023
    1QTZ  O110311034  17.957   3.150   0.114
    1QTZ  O110311035  18.225   3.089   0.034
    1QTZ  O110311036  17.640   3.050   0.992
    1QTZ  O110311037  17.936   2.991   0.531
    1QTZ  O110311038  17.613   3.355   0.432
    1QTZ  O110311039  18.118   3.274   0.817
    1QTZ  O110411040  17.697   3.213   0.002
    1QTZ  Si11011041  18.383   3.154   0.084
    1QTZ  Si11011042  17.803   3.090   0.985
    1QTZ  Si11011043  18.084   3.020   0.456
    1QTZ  Si11011044  17.647   3.275   0.582
    1QTZ  Si11011045  18.162   3.259   0.988
    1QTZ  Si11011046  17.854   3.274   0.063
    1QTZ  Si11011047  17.898   3.335   1.166
    1QTZ  Si11011048  17.630   3.388   0.264
    1QTZ  Si11011049  18.174   3.274   0.650
    1QTZ  Si11011050  17.827   3.020   0.660
    1QTZ  Si11011051  18.340   3.013   1.086
    1QTZ  Si11011052  18.072   3.026   0.105
    1QTZ  O110511053  17.862   3.040   2.413
    1QTZ  O110511054  18.412   2.992   1.533
    1QTZ  O110511055  18.108   2.923   2.064
    1QTZ  O110511056  17.663   3.376   2.009
    1QTZ  O110511057  18.266   3.398   2.475
    1QTZ  O110511058  18.008   3.354   1.567
    1QTZ  O110511059  17.998   3.336   2.556
    1QTZ  O110611060  17.749   3.298   1.597
    1QTZ  O110611061  18.287   3.240   2.059
    1QTZ  O110611062  17.776   3.105   2.157
    1QTZ  O110611063  18.366   3.044   1.257
    1QTZ  O110611064  18.105   3.025   1.772
    1QTZ  O110611065  17.794   3.296   2.379
    1QTZ  O110611066  17.515   3.242   1.483
    1QTZ  O110611067  18.053   3.167   2.031
    1QTZ  O110611068  17.648   3.127   1.917
    1QTZ  O110611069  18.253   3.152   2.564
    1QTZ  O110711070  17.933   3.107   1.551
    1QTZ  O110711071  18.172   3.043   1.476
    1QTZ  O110711072  17.608   3.091   2.388
    1QTZ  O110711073  17.886   2.998   1.928
    1QTZ  O110711074  17.523   3.319   1.767
    1QTZ  O110711075  18.125   3.242   2.311
    1QTZ  O110711076  17.858   3.293   1.332
    1QTZ  Si11011077  18.325   3.085   1.423
    1QTZ  Si11011078  17.759   3.139   2.325
    1QTZ  Si11011079  18.049   3.025   1.939
    1QTZ  Si11011080  17.562   3.268   1.930
    1QTZ  Si11011081  18.150   3.274   2.485
    1QTZ  Si11011082  17.884   3.262   1.503
    1QTZ  Si11011083  17.840   3.401   2.506
    1QTZ  Si11011084  17.586   3.338   1.605
    1QTZ  Si11011085  18.139   3.269   2.133
    1QTZ  Si11011086  17.743   3.025   2.007
    1QTZ  Si11011087  18.369   3.025   2.526
    1QTZ  Si11011088  18.062   3.010   1.602
    1QTZ  O110811089  18.709   0.007   1.106
    1QTZ  O110911090  19.263   0.061   0.210
    1QTZ  O110911091  19.005   3.417   0.558
    1QTZ  O110911092  18.575   0.391   0.672
    1QTZ  O110911093  19.125   0.370   1.038
    1QTZ  O110911094  18.804   0.416   0.025
    1QTZ  O110911095  18.886   0.306   1.114
    1QTZ  O110911096  18.614   0.355   0.201
    1QTZ  O110911097  19.171   0.261   0.661
    1QTZ  O110911098  18.700   0.084   0.822
    1QTZ  O110911099  18.932   0.007   0.279
    1QTZ  O111011100  18.646   0.255   1.057
    1QTZ  O111011101  18.361   0.304   0.177
    1QTZ  O111011102  18.949   0.186   0.525
    1QTZ  O111011103  18.561   0.142   0.580
    1QTZ  O111011104  19.050   0.119   1.023
    1QTZ  O111011105  18.791   0.163   0.114
    1QTZ  O111011106  19.059   0.102   0.034
    1QTZ  O111011107  18.475   0.063   0.992
    1QTZ  O111011108  18.771   0.005   0.531
    1QTZ  O111011109  18.447   0.368   0.433
    1QTZ  O111111110  18.952   0.287   0.817
    1QTZ  O111111111  18.531   0.227   0.003
    1QTZ  Si11111112  19.217   0.167   0.084
    1QTZ  Si11111113  18.638   0.103   0.985
    1QTZ  Si11111114  18.918   0.034   0.456
    1QTZ  Si11111115  18.481   0.288   0.582
    1QTZ  Si11111116  18.996   0.273   0.988
    1QTZ  Si11111117  18.688   0.288   0.063
    1QTZ  Si11111118  18.732   0.348   1.166
    1QTZ  Si11111119  18.464   0.402   0.265
    1QTZ  Si11111120  19.008   0.288   0.650
    1QTZ  Si11111121  18.661   0.034   0.660
    1QTZ  Si11111122  19.174   0.026   1.086
    1QTZ  Si11111123  18.906   0.040   0.105
    1QTZ  O111211124  18.696   0.054   2.413
    1QTZ  O111211125  19.246   0.006   1.533
    1QTZ  O111211126  18.942   3.421   2.064
    1QTZ  O111211127  18.497   0.390   2.010
    1QTZ  O111211128  19.100   0.412   2.475
    1QTZ  O111211129  18.842   0.368   1.567
    1QTZ  O111311130  18.832   0.350   2.556
    1QTZ  O111311131  18.583   0.311   1.598
    1QTZ  O111311132  19.121   0.253   2.058
    1QTZ  O111311133  18.610   0.118   2.157
    1QTZ  O111311134  19.200   0.057   1.257
    1QTZ  O111311135  18.939   0.038   1.772
    1QTZ  O111311136  18.629   0.309   2.379
    1QTZ  O111311137  18.349   0.255   1.484
    1QTZ  O111311138  18.886   0.181   2.031
    1QTZ  O111311139  18.481   0.141   1.918
    1QTZ  O111411140  19.087   0.166   2.564
    1QTZ  O111411141  18.767   0.121   1.551
    1QTZ  O111411142  19.006   0.057   1.476
    1QTZ  O111411143  18.442   0.105   2.388
    1QTZ  O111411144  18.720   0.012   1.928
    1QTZ  O111411145  18.357   0.333   1.768
    1QTZ  O111411146  18.959   0.255   2.311
    1QTZ  O111411147  18.692   0.307   1.332
    1QTZ  Si11111148  19.159   0.099   1.423
    1QTZ  Si11111149  18.593   0.152   2.325
    1QTZ  Si11111150  18.883   0.039   1.939
    1QTZ  Si11111151  18.396   0.282   1.930
    1QTZ  Si11111152  18.985   0.288   2.485
    1QTZ  Si11111153  18.718   0.275   1.503
    1QTZ  Si11111154  18.674   0.415   2.506
    1QTZ  Si11111155  18.420   0.352   1.605
    1QTZ  Si11111156  18.974   0.283   2.133
    1QTZ  Si11111157  18.577   0.039   2.008
    1QTZ  Si11111158  19.203   0.038   2.526
    1QTZ  Si11111159  18.896   0.024   1.602
    1QTZ  O111611160  18.709   0.505   1.106
    1QTZ  O111611161  19.262   0.559   0.210
    1QTZ  O111611162  19.004   0.430   0.559
    1QTZ  O111611163  18.575   0.889   0.673
    1QTZ  O111611164  19.125   0.868   1.038
    1QTZ  O111611165  18.804   0.913   0.026
    1QTZ  O111611166  18.886   0.804   1.114
    1QTZ  O111611167  18.614   0.853   0.202
    1QTZ  O111611168  19.171   0.758   0.661
    1QTZ  O111611169  18.700   0.582   0.822
    1QTZ  O111711170  18.932   0.505   0.279
    1QTZ  O111711171  18.646   0.753   1.057
    1QTZ  O111711172  18.361   0.802   0.177
    1QTZ  O111711173  18.949   0.684   0.525
    1QTZ  O111711174  18.560   0.640   0.581
    1QTZ  O111711175  19.049   0.617   1.023
    1QTZ  O111711176  18.791   0.661   0.114
    1QTZ  O111711177  19.059   0.600   0.034
    1QTZ  O111711178  18.475   0.561   0.992
    1QTZ  O111711179  18.770   0.503   0.531
    1QTZ  O111811180  18.447   0.866   0.433
    1QTZ  O111811181  18.952   0.785   0.817
    1QTZ  O111811182  18.531   0.725   0.003
    1QTZ  Si11111183  19.217   0.665   0.084
    1QTZ  Si11111184  18.638   0.601   0.985
    1QTZ  Si11111185  18.918   0.532   0.456
    1QTZ  Si11111186  18.480   0.786   0.582
    1QTZ  Si11111187  18.996   0.771   0.988
    1QTZ  Si11111188  18.688   0.786   0.064
    1QTZ  Si11111189  18.732   0.846   1.167
    1QTZ  Si11111190  18.464   0.900   0.265
    1QTZ  Si11111191  19.008   0.785   0.650
    1QTZ  Si11111192  18.661   0.532   0.660
    1QTZ  Si11111193  19.173   0.524   1.087
    1QTZ  Si11111194  18.906   0.538   0.105
    1QTZ  O111911195  18.696   0.552   2.413
    1QTZ  O111911196  19.245   0.504   1.533
    1QTZ  O111911197  18.943   0.434   2.064
    1QTZ  O111911198  18.497   0.887   2.010
    1QTZ  O111911199  19.100   0.909   2.476
    1QTZ  O112011200  18.842   0.866   1.566
    1QTZ  O112011201  18.832   0.848   2.556
    1QTZ  O112011202  18.583   0.809   1.598
    1QTZ  O112011203  19.120   0.753   2.060
    1QTZ  O112011204  18.611   0.616   2.157
    1QTZ  O112011205  19.200   0.556   1.257
    1QTZ  O112011206  18.940   0.536   1.773
    1QTZ  O112011207  18.628   0.807   2.380
    1QTZ  O112011208  18.349   0.753   1.484
    1QTZ  O112011209  18.886   0.679   2.031
    1QTZ  O112111210  18.483   0.638   1.918
    1QTZ  O112111211  19.087   0.664   2.565
    1QTZ  O112111212  18.767   0.619   1.552
    1QTZ  O112111213  19.006   0.554   1.476
    1QTZ  O112111214  18.443   0.602   2.389
    1QTZ  O112111215  18.721   0.508   1.929
    1QTZ  O112111216  18.358   0.830   1.768
    1QTZ  O112111217  18.958   0.753   2.311
    1QTZ  O112111218  18.692   0.804   1.332
    1QTZ  Si11211219  19.159   0.597   1.423
    1QTZ  Si11211220  18.593   0.650   2.325
    1QTZ  Si11211221  18.884   0.536   1.940
    1QTZ  Si11211222  18.396   0.779   1.930
    1QTZ  Si11211223  18.984   0.786   2.485
    1QTZ  Si11211224  18.718   0.773   1.503
    1QTZ  Si11211225  18.674   0.913   2.506
    1QTZ  Si11211226  18.420   0.849   1.605
    1QTZ  Si11211227  18.972   0.781   2.134
    1QTZ  Si11211228  18.578   0.536   2.008
    1QTZ  Si11211229  19.203   0.536   2.526
    1QTZ  Si11211230  18.896   0.522   1.602
    1QTZ  O112311231  18.709   1.003   1.107
    1QTZ  O112311232  19.262   1.057   0.210
    1QTZ  O112311233  19.005   0.928   0.559
    1QTZ  O112311234  18.574   1.386   0.673
    1QTZ  O112311235  19.125   1.366   1.038
    1QTZ  O112311236  18.804   1.411   0.025
    1QTZ  O112311237  18.886   1.302   1.114
    1QTZ  O112311238  18.614   1.350   0.202
    1QTZ  O112311239  19.172   1.257   0.662
    1QTZ  O112411240  18.700   1.080   0.823
    1QTZ  O112411241  18.932   1.003   0.279
    1QTZ  O112411242  18.646   1.251   1.057
    1QTZ  O112411243  18.361   1.299   0.177
    1QTZ  O112411244  18.950   1.182   0.526
    1QTZ  O112411245  18.561   1.138   0.580
    1QTZ  O112411246  19.049   1.115   1.024
    1QTZ  O112411247  18.791   1.159   0.115
    1QTZ  O112411248  19.059   1.098   0.034
    1QTZ  O112411249  18.475   1.058   0.993
    1QTZ  O112511250  18.771   1.002   0.531
    1QTZ  O112511251  18.447   1.364   0.433
    1QTZ  O112511252  18.952   1.283   0.818
    1QTZ  O112511253  18.531   1.222   0.003
    1QTZ  Si11211254  19.217   1.163   0.084
    1QTZ  Si11211255  18.638   1.099   0.985
    1QTZ  Si11211256  18.918   1.030   0.457
    1QTZ  Si11211257  18.480   1.284   0.582
    1QTZ  Si11211258  18.996   1.269   0.988
    1QTZ  Si11211259  18.688   1.283   0.064
    1QTZ  Si11211260  18.732   1.344   1.167
    1QTZ  Si11211261  18.464   1.397   0.265
    1QTZ  Si11211262  19.009   1.283   0.651
    1QTZ  Si11211263  18.661   1.030   0.660
    1QTZ  Si11211264  19.173   1.022   1.087
    1QTZ  Si11211265  18.907   1.035   0.105
    1QTZ  O112611266  18.695   1.049   2.413
    1QTZ  O112611267  19.245   1.002   1.534
    1QTZ  O112611268  18.940   0.933   2.065
    1QTZ  O112611269  18.497   1.385   2.010
    1QTZ  O112711270  19.100   1.407   2.475
    1QTZ  O112711271  18.842   1.363   1.567
    1QTZ  O112711272  18.832   1.346   2.556
    1QTZ  O112711273  18.582   1.307   1.598
    1QTZ  O112711274  19.121   1.248   2.058
    1QTZ  O112711275  18.609   1.114   2.157
    1QTZ  O112711276  19.200   1.052   1.258
    1QTZ  O112711277  18.939   1.034   1.773
    1QTZ  O112711278  18.628   1.305   2.380
    1QTZ  O112711279  18.348   1.251   1.484
    1QTZ  O112811280  18.886   1.177   2.031
    1QTZ  O112811281  18.480   1.136   1.918
    1QTZ  O112811282  19.087   1.161   2.565
    1QTZ  O112811283  18.766   1.117   1.552
    1QTZ  O112811284  19.005   1.053   1.476
    1QTZ  O112811285  18.442   1.101   2.389
    1QTZ  O112811286  18.719   1.008   1.928
    1QTZ  O112811287  18.357   1.329   1.768
    1QTZ  O112811288  18.959   1.251   2.311
    1QTZ  O112811289  18.691   1.302   1.333
    1QTZ  Si11211290  19.159   1.094   1.423
    1QTZ  Si11211291  18.592   1.148   2.325
    1QTZ  Si11211292  18.882   1.034   1.940
    1QTZ  Si11211293  18.395   1.278   1.931
    1QTZ  Si11211294  18.985   1.283   2.485
    1QTZ  Si11211295  18.717   1.271   1.504
    1QTZ  Si11211296  18.674   1.411   2.506
    1QTZ  Si11211297  18.419   1.347   1.606
    1QTZ  Si11211298  18.974   1.278   2.133
    1QTZ  Si11211299  18.576   1.034   2.008
    1QTZ  Si11311300  19.203   1.034   2.526
    1QTZ  Si11311301  18.895   1.020   1.602
    1QTZ  O113011302  18.708   1.500   1.107
    1QTZ  O113011303  19.262   1.555   0.211
    1QTZ  O113011304  19.005   1.426   0.559
    1QTZ  O113011305  18.576   1.884   0.672
    1QTZ  O113011306  19.125   1.863   1.037
    1QTZ  O113011307  18.804   1.909   0.025
    1QTZ  O113011308  18.886   1.799   1.114
    1QTZ  O113011309  18.615   1.848   0.201
    1QTZ  O113111310  19.170   1.753   0.661
    1QTZ  O113111311  18.700   1.577   0.823
    1QTZ  O113111312  18.932   1.500   0.279
    1QTZ  O113111313  18.646   1.749   1.057
    1QTZ  O113111314  18.361   1.797   0.177
    1QTZ  O113111315  18.948   1.679   0.525
    1QTZ  O113111316  18.561   1.635   0.581
    1QTZ  O113111317  19.050   1.612   1.023
    1QTZ  O113111318  18.791   1.657   0.115
    1QTZ  O113111319  19.059   1.595   0.034
    1QTZ  O113211320  18.474   1.557   0.992
    1QTZ  O113211321  18.770   1.498   0.532
    1QTZ  O113211322  18.447   1.862   0.433
    1QTZ  O113211323  18.952   1.780   0.817
    1QTZ  O113211324  18.531   1.720   0.003
    1QTZ  Si11311325  19.217   1.660   0.084
    1QTZ  Si11311326  18.638   1.597   0.985
    1QTZ  Si11311327  18.918   1.527   0.457
    1QTZ  Si11311328  18.481   1.782   0.582
    1QTZ  Si11311329  18.996   1.766   0.987
    1QTZ  Si11311330  18.688   1.781   0.064
    1QTZ  Si11311331  18.733   1.842   1.166
    1QTZ  Si11311332  18.464   1.895   0.265
    1QTZ  Si11311333  19.008   1.781   0.650
    1QTZ  Si11311334  18.661   1.527   0.660
    1QTZ  Si11311335  19.174   1.520   1.087
    1QTZ  Si11311336  18.906   1.533   0.105
    1QTZ  O113311337  18.696   1.547   2.413
    1QTZ  O113311338  19.245   1.499   1.533
    1QTZ  O113311339  18.944   1.430   2.064
    1QTZ  O113411340  18.497   1.883   2.009
    1QTZ  O113411341  19.100   1.905   2.476
    1QTZ  O113411342  18.843   1.861   1.566
    1QTZ  O113411343  18.832   1.844   2.556
    1QTZ  O113411344  18.583   1.805   1.598
    1QTZ  O113411345  19.121   1.749   2.060
    1QTZ  O113411346  18.611   1.612   2.157
    1QTZ  O113411347  19.200   1.551   1.258
    1QTZ  O113411348  18.940   1.532   1.773
    1QTZ  O113411349  18.628   1.803   2.380
    1QTZ  O113511350  18.349   1.749   1.483
    1QTZ  O113511351  18.887   1.674   2.031
    1QTZ  O113511352  18.484   1.634   1.917
    1QTZ  O113511353  19.087   1.659   2.565
    1QTZ  O113511354  18.767   1.614   1.552
    1QTZ  O113511355  19.006   1.549   1.476
    1QTZ  O113511356  18.443   1.598   2.388
    1QTZ  O113511357  18.721   1.504   1.929
    1QTZ  O113511358  18.358   1.825   1.767
    1QTZ  O113511359  18.958   1.749   2.311
    1QTZ  O113611360  18.692   1.800   1.332
    1QTZ  Si11311361  19.159   1.592   1.424
    1QTZ  Si11311362  18.593   1.645   2.325
    1QTZ  Si11311363  18.884   1.532   1.940
    1QTZ  Si11311364  18.396   1.775   1.930
    1QTZ  Si11311365  18.984   1.781   2.485
    1QTZ  Si11311366  18.719   1.768   1.503
    1QTZ  Si11311367  18.674   1.909   2.506
    1QTZ  Si11311368  18.420   1.845   1.605
    1QTZ  Si11311369  18.972   1.777   2.134
    1QTZ  Si11311370  18.578   1.532   2.008
    1QTZ  Si11311371  19.203   1.532   2.527
    1QTZ  Si11311372  18.896   1.517   1.602
    1QTZ  O113711373  18.709   1.998   1.106
    1QTZ  O113711374  19.263   2.052   0.210
    1QTZ  O113711375  19.005   1.923   0.559
    1QTZ  O113711376  18.574   2.382   0.672
    1QTZ  O113711377  19.125   2.361   1.038
    1QTZ  O113711378  18.804   2.406   0.025
    1QTZ  O113711379  18.886   2.297   1.114
    1QTZ  O113811380  18.614   2.345   0.201
    1QTZ  O113811381  19.172   2.253   0.662
    1QTZ  O113811382  18.700   2.076   0.822
    1QTZ  O113811383  18.933   1.998   0.279
    1QTZ  O113811384  18.646   2.247   1.056
    1QTZ  O113811385  18.361   2.295   0.177
    1QTZ  O113811386  18.951   2.177   0.525
    1QTZ  O113811387  18.560   2.133   0.580
    1QTZ  O113811388  19.049   2.110   1.024
    1QTZ  O113811389  18.791   2.154   0.114
    1QTZ  O113911390  19.059   2.093   0.034
    1QTZ  O113911391  18.475   2.054   0.992
    1QTZ  O113911392  18.771   1.998   0.530
    1QTZ  O113911393  18.447   2.359   0.432
    1QTZ  O113911394  18.953   2.278   0.817
    1QTZ  O113911395  18.531   2.217   0.003
    1QTZ  Si11311396  19.217   2.158   0.084
    1QTZ  Si11311397  18.638   2.094   0.985
    1QTZ  Si11311398  18.919   2.026   0.456
    1QTZ  Si11311399  18.480   2.279   0.582
    1QTZ  Si11411400  18.996   2.264   0.988
    1QTZ  Si11411401  18.688   2.279   0.063
    1QTZ  Si11411402  18.732   2.339   1.166
    1QTZ  Si11411403  18.464   2.393   0.264
    1QTZ  Si11411404  19.009   2.279   0.650
    1QTZ  Si11411405  18.662   2.026   0.659
    1QTZ  Si11411406  19.173   2.017   1.087
    1QTZ  Si11411407  18.907   2.031   0.105
    1QTZ  O114011408  18.695   2.045   2.413
    1QTZ  O114011409  19.245   1.997   1.534
    1QTZ  O114111410  18.941   1.928   2.065
    1QTZ  O114111411  18.498   2.381   2.009
    1QTZ  O114111412  19.100   2.403   2.475
    1QTZ  O114111413  18.842   2.359   1.566
    1QTZ  O114111414  18.832   2.341   2.555
    1QTZ  O114111415  18.583   2.303   1.598
    1QTZ  O114111416  19.121   2.244   2.058
    1QTZ  O114111417  18.610   2.109   2.157
    1QTZ  O114111418  19.200   2.048   1.257
    1QTZ  O114111419  18.939   2.029   1.773
    1QTZ  O114211420  18.629   2.300   2.379
    1QTZ  O114211421  18.348   2.246   1.484
    1QTZ  O114211422  18.886   2.172   2.031
    1QTZ  O114211423  18.481   2.132   1.918
    1QTZ  O114211424  19.087   2.157   2.564
    1QTZ  O114211425  18.767   2.112   1.552
    1QTZ  O114211426  19.006   2.048   1.476
    1QTZ  O114211427  18.442   2.096   2.389
    1QTZ  O114211428  18.719   2.003   1.928
    1QTZ  O114211429  18.357   2.324   1.768
    1QTZ  O114311430  18.959   2.246   2.310
    1QTZ  O114311431  18.692   2.298   1.332
    1QTZ  Si11411432  19.159   2.090   1.423
    1QTZ  Si11411433  18.593   2.143   2.325
    1QTZ  Si11411434  18.882   2.030   1.939
    1QTZ  Si11411435  18.396   2.273   1.930
    1QTZ  Si11411436  18.985   2.279   2.484
    1QTZ  Si11411437  18.718   2.266   1.503
    1QTZ  Si11411438  18.674   2.406   2.505
    1QTZ  Si11411439  18.419   2.343   1.605
    1QTZ  Si11411440  18.974   2.274   2.133
    1QTZ  Si11411441  18.576   2.029   2.008
    1QTZ  Si11411442  19.203   2.029   2.526
    1QTZ  Si11411443  18.896   2.015   1.602
    1QTZ  O114411444  18.708   2.496   1.106
    1QTZ  O114411445  19.263   2.550   0.210
    1QTZ  O114411446  19.005   2.421   0.559
    1QTZ  O114411447  18.576   2.880   0.672
    1QTZ  O114411448  19.125   2.859   1.037
    1QTZ  O114411449  18.804   2.904   0.025
    1QTZ  O114511450  18.886   2.794   1.113
    1QTZ  O114511451  18.615   2.843   0.201
    1QTZ  O114511452  19.171   2.749   0.661
    1QTZ  O114511453  18.700   2.573   0.822
    1QTZ  O114511454  18.932   2.495   0.279
    1QTZ  O114511455  18.646   2.744   1.056
    1QTZ  O114511456  18.361   2.792   0.176
    1QTZ  O114511457  18.948   2.674   0.525
    1QTZ  O114511458  18.561   2.631   0.580
    1QTZ  O114511459  19.050   2.608   1.023
    1QTZ  O114611460  18.791   2.652   0.114
    1QTZ  O114611461  19.059   2.591   0.034
    1QTZ  O114611462  18.475   2.552   0.992
    1QTZ  O114611463  18.770   2.493   0.531
    1QTZ  O114611464  18.447   2.857   0.432
    1QTZ  O114611465  18.952   2.776   0.817
    1QTZ  O114611466  18.531   2.715   0.002
    1QTZ  Si11411467  19.217   2.656   0.084
    1QTZ  Si11411468  18.638   2.592   0.985
    1QTZ  Si11411469  18.918   2.523   0.456
    1QTZ  Si11411470  18.481   2.777   0.582
    1QTZ  Si11411471  18.996   2.761   0.987
    1QTZ  Si11411472  18.688   2.777   0.063
    1QTZ  Si11411473  18.733   2.837   1.166
    1QTZ  Si11411474  18.464   2.891   0.264
    1QTZ  Si11411475  19.008   2.776   0.650
    1QTZ  Si11411476  18.661   2.522   0.660
    1QTZ  Si11411477  19.174   2.515   1.086
    1QTZ  Si11411478  18.907   2.528   0.105
    1QTZ  O114711479  18.696   2.543   2.413
    1QTZ  O114811480  19.246   2.495   1.533
    1QTZ  O114811481  18.943   2.426   2.064
    1QTZ  O114811482  18.497   2.878   2.009
    1QTZ  O114811483  19.100   2.900   2.475
    1QTZ  O114811484  18.843   2.856   1.566
    1QTZ  O114811485  18.832   2.839   2.555
    1QTZ  O114811486  18.583   2.800   1.597
    1QTZ  O114811487  19.121   2.743   2.059
    1QTZ  O114811488  18.611   2.607   2.157
    1QTZ  O114811489  19.200   2.546   1.257
    1QTZ  O114911490  18.940   2.527   1.772
    1QTZ  O114911491  18.629   2.798   2.379
    1QTZ  O114911492  18.349   2.744   1.483
    1QTZ  O114911493  18.887   2.670   2.031
    1QTZ  O114911494  18.483   2.629   1.917
    1QTZ  O114911495  19.087   2.655   2.564
    1QTZ  O114911496  18.767   2.610   1.551
    1QTZ  O114911497  19.006   2.545   1.475
    1QTZ  O114911498  18.443   2.594   2.388
    1QTZ  O114911499  18.721   2.500   1.928
    1QTZ  O115011500  18.358   2.821   1.767
    1QTZ  O115011501  18.959   2.744   2.311
    1QTZ  O115011502  18.692   2.796   1.332
    1QTZ  Si11511503  19.160   2.588   1.423
    1QTZ  Si11511504  18.593   2.641   2.325
    1QTZ  Si11511505  18.884   2.527   1.939
    1QTZ  Si11511506  18.396   2.770   1.930
    1QTZ  Si11511507  18.985   2.777   2.485
    1QTZ  Si11511508  18.719   2.764   1.503
    1QTZ  Si11511509  18.674   2.904   2.506
    1QTZ  Si11511510  18.420   2.840   1.605
    1QTZ  Si11511511  18.973   2.772   2.133
    1QTZ  Si11511512  18.578   2.527   2.008
    1QTZ  Si11511513  19.203   2.527   2.526
    1QTZ  Si11511514  18.896   2.513   1.602
    1QTZ  O115111515  18.709   2.993   1.106
    1QTZ  O115111516  19.263   3.048   0.209
    1QTZ  O115111517  19.005   2.919   0.558
    1QTZ  O115111518  18.574   3.377   0.672
    1QTZ  O115111519  19.125   3.356   1.037
    1QTZ  O115211520  18.804   3.402   0.025
    1QTZ  O115211521  18.886   3.293   1.113
    1QTZ  O115211522  18.614   3.341   0.201
    1QTZ  O115211523  19.172   3.248   0.661
    1QTZ  O115211524  18.700   3.071   0.822
    1QTZ  O115211525  18.933   2.994   0.278
    1QTZ  O115211526  18.646   3.242   1.056
    1QTZ  O115211527  18.361   3.290   0.177
    1QTZ  O115211528  18.951   3.173   0.524
    1QTZ  O115211529  18.560   3.129   0.580
    1QTZ  O115311530  19.049   3.106   1.023
    1QTZ  O115311531  18.791   3.150   0.114
    1QTZ  O115311532  19.059   3.089   0.033
    1QTZ  O115311533  18.475   3.049   0.992
    1QTZ  O115311534  18.771   2.993   0.530
    1QTZ  O115311535  18.447   3.355   0.432
    1QTZ  O115311536  18.953   3.273   0.817
    1QTZ  O115311537  18.531   3.213   0.003
    1QTZ  Si11511538  19.217   3.154   0.083
    1QTZ  Si11511539  18.638   3.090   0.985
    1QTZ  Si11511540  18.919   3.021   0.456
    1QTZ  Si11511541  18.480   3.275   0.582
    1QTZ  Si11511542  18.996   3.259   0.987
    1QTZ  Si11511543  18.688   3.274   0.063
    1QTZ  Si11511544  18.732   3.335   1.166
    1QTZ  Si11511545  18.464   3.389   0.265
    1QTZ  Si11511546  19.009   3.274   0.650
    1QTZ  Si11511547  18.662   3.021   0.659
    1QTZ  Si11511548  19.174   3.013   1.086
    1QTZ  Si11511549  18.907   3.026   0.104
    1QTZ  O115511550  18.696   3.040   2.413
    1QTZ  O115511551  19.246   2.992   1.533
    1QTZ  O115511552  18.942   2.923   2.064
    1QTZ  O115511553  18.497   3.376   2.009
    1QTZ  O115511554  19.100   3.398   2.475
    1QTZ  O115511555  18.842   3.354   1.566
    1QTZ  O115511556  18.832   3.337   2.555
    1QTZ  O115511557  18.583   3.298   1.597
    1QTZ  O115511558  19.121   3.241   2.058
    1QTZ  O115511559  18.610   3.105   2.157
    1QTZ  O115611560  19.200   3.044   1.257
    1QTZ  O115611561  18.940   3.025   1.772
    1QTZ  O115611562  18.629   3.296   2.379
    1QTZ  O115611563  18.349   3.242   1.483
    1QTZ  O115611564  18.886   3.167   2.031
    1QTZ  O115611565  18.483   3.127   1.917
    1QTZ  O115611566  19.087   3.153   2.564
    1QTZ  O115611567  18.767   3.107   1.551
    1QTZ  O115611568  19.006   3.043   1.476
    1QTZ  O115611569  18.443   3.091   2.388
    1QTZ  O115711570  18.720   2.998   1.928
    1QTZ  O115711571  18.358   3.319   1.767
    1QTZ  O115711572  18.959   3.242   2.310
    1QTZ  O115711573  18.692   3.293   1.332
    1QTZ  Si11511574  19.160   3.085   1.423
    1QTZ  Si11511575  18.593   3.139   2.325
    1QTZ  Si11511576  18.883   3.025   1.939
    1QTZ  Si11511577  18.396   3.268   1.930
    1QTZ  Si11511578  18.984   3.274   2.484
    1QTZ  Si11511579  18.718   3.261   1.503
    1QTZ  Si11511580  18.674   3.402   2.506
    1QTZ  Si11511581  18.420   3.338   1.605
    1QTZ  Si11511582  18.973   3.269   2.133
    1QTZ  Si11511583  18.577   3.025   2.008
    1QTZ  Si11511584  19.203   3.025   2.526
    1QTZ  Si11511585  18.896   3.010   1.602
    1QTZ  O115811586  19.543   0.007   1.105
    1QTZ  O115811587  19.839   3.417   0.558
    1QTZ  O115811588  19.409   0.391   0.672
    1QTZ  O115811589  19.959   0.370   1.037
    1QTZ  O115911590  19.638   0.416   0.025
    1QTZ  O115911591  19.720   0.306   1.113
    1QTZ  O115911592  19.448   0.355   0.201
    1QTZ  O115911593  20.005   0.261   0.661
    1QTZ  O115911594  19.534   0.085   0.821
    1QTZ  O115911595  19.767   0.007   0.278
    1QTZ  O115911596  19.480   0.255   1.056
    1QTZ  O115911597  19.195   0.304   0.177
    1QTZ  O115911598  19.784   0.186   0.524
    1QTZ  O115911599  19.394   0.142   0.580
    1QTZ  O116011600  19.883   0.119   1.023
    1QTZ  O116011601  19.625   0.164   0.114
    1QTZ  O116011602  19.893   0.103   0.033
    1QTZ  O116011603  19.309   0.063   0.991
    1QTZ  O116011604  19.604   0.006   0.530
    1QTZ  O116011605  19.281   0.369   0.432
    1QTZ  O116011606  19.786   0.287   0.816
    1QTZ  O116011607  19.365   0.227   0.002
    1QTZ  Si11611608  16.714   0.167   0.083
    1QTZ  Si11611609  19.472   0.103   0.984
    1QTZ  Si11611610  19.752   0.035   0.455
    1QTZ  Si11611611  19.314   0.288   0.582
    1QTZ  Si11611612  19.830   0.273   0.987
    1QTZ  Si11611613  19.522   0.288   0.063
    1QTZ  Si11611614  19.566   0.348   1.166
    1QTZ  Si11611615  19.298   0.402   0.264
    1QTZ  Si11611616  19.843   0.288   0.649
    1QTZ  Si11611617  19.495   0.034   0.659
    1QTZ  Si11611618  20.007   0.026   1.086
    1QTZ  Si11611619  19.741   0.040   0.104
    1QTZ  O116211620  19.530   0.054   2.413
    1QTZ  O116211621  19.777   3.421   2.064
    1QTZ  O116211622  19.331   0.390   2.009
    1QTZ  O116211623  19.934   0.411   2.475
    1QTZ  O116211624  19.676   0.368   1.566
    1QTZ  O116211625  19.666   0.350   2.555
    1QTZ  O116211626  19.417   0.312   1.597
    1QTZ  O116211627  19.955   0.255   2.059
    1QTZ  O116211628  19.445   0.118   2.157
    1QTZ  O116211629  19.774   0.038   1.772
    1QTZ  O116311630  19.462   0.309   2.379
    1QTZ  O116311631  19.183   0.255   1.483
    1QTZ  O116311632  19.720   0.181   2.030
    1QTZ  O116311633  19.317   0.140   1.917
    1QTZ  O116311634  19.921   0.166   2.564
    1QTZ  O116311635  19.601   0.121   1.551
    1QTZ  O116311636  19.840   0.057   1.475
    1QTZ  O116311637  19.277   0.105   2.388
    1QTZ  O116311638  19.555   0.011   1.928
    1QTZ  O116311639  19.192   0.332   1.767
    1QTZ  O116411640  19.792   0.255   2.310
    1QTZ  O116411641  19.526   0.306   1.332
    1QTZ  Si11611642  19.993   0.099   1.423
    1QTZ  Si11611643  19.427   0.152   2.324
    1QTZ  Si11611644  19.717   0.038   1.939
    1QTZ  Si11611645  19.230   0.281   1.930
    1QTZ  Si11611646  19.818   0.288   2.484
    1QTZ  Si11611647  19.552   0.275   1.502
    1QTZ  Si11611648  19.508   0.415   2.505
    1QTZ  Si11611649  19.254   0.352   1.604
    1QTZ  Si11611650  19.806   0.283   2.133
    1QTZ  Si11611651  19.411   0.038   2.007
    1QTZ  Si11611652  20.037   0.038   2.526
    1QTZ  Si11611653  19.730   0.024   1.601
    1QTZ  O116511654  19.543   0.505   1.106
    1QTZ  O116511655  19.839   0.430   0.558
    1QTZ  O116511656  19.408   0.888   0.672
    1QTZ  O116511657  19.959   0.868   1.038
    1QTZ  O116511658  19.638   0.914   0.025
    1QTZ  O116511659  19.720   0.804   1.114
    1QTZ  O116611660  19.448   0.853   0.201
    1QTZ  O116611661  20.005   0.759   0.661
    1QTZ  O116611662  19.534   0.582   0.822
    1QTZ  O116611663  19.766   0.505   0.279
    1QTZ  O116611664  19.480   0.753   1.056
    1QTZ  O116611665  19.195   0.802   0.177
    1QTZ  O116611666  19.784   0.684   0.525
    1QTZ  O116611667  19.395   0.640   0.580
    1QTZ  O116611668  19.883   0.617   1.023
    1QTZ  O116611669  19.625   0.661   0.114
    1QTZ  O116711670  19.893   0.600   0.034
    1QTZ  O116711671  19.309   0.561   0.992
    1QTZ  O116711672  19.605   0.503   0.531
    1QTZ  O116711673  19.281   0.866   0.432
    1QTZ  O116711674  19.786   0.785   0.817
    1QTZ  O116711675  19.365   0.725   0.003
    1QTZ  Si11611676  16.714   0.665   0.084
    1QTZ  Si11611677  19.472   0.601   0.985
    1QTZ  Si11611678  19.752   0.532   0.456
    1QTZ  Si11611679  19.314   0.786   0.582
    1QTZ  Si11611680  19.830   0.771   0.988
    1QTZ  Si11611681  19.522   0.786   0.063
    1QTZ  Si11611682  19.566   0.846   1.166
    1QTZ  Si11611683  19.298   0.900   0.265
    1QTZ  Si11611684  19.842   0.786   0.650
    1QTZ  Si11611685  19.495   0.532   0.660
    1QTZ  Si11611686  20.007   0.524   1.086
    1QTZ  Si11611687  19.741   0.538   0.105
    1QTZ  O116811688  19.530   0.552   2.413
    1QTZ  O116811689  19.775   0.435   2.064
    1QTZ  O116911690  19.331   0.887   2.009
    1QTZ  O116911691  19.934   0.909   2.475
    1QTZ  O116911692  19.676   0.865   1.567
    1QTZ  O116911693  19.666   0.848   2.555
    1QTZ  O116911694  19.416   0.809   1.598
    1QTZ  O116911695  19.955   0.750   2.058
    1QTZ  O116911696  19.444   0.616   2.157
    1QTZ  O116911697  19.773   0.536   1.772
    1QTZ  O116911698  19.463   0.807   2.379
    1QTZ  O116911699  19.182   0.753   1.484
    1QTZ  O117011700  19.720   0.679   2.030
    1QTZ  O117011701  19.315   0.638   1.918
    1QTZ  O117011702  19.921   0.663   2.564
    1QTZ  O117011703  19.601   0.619   1.551
    1QTZ  O117011704  19.840   0.555   1.476
    1QTZ  O117011705  19.276   0.603   2.388
    1QTZ  O117011706  19.553   0.510   1.927
    1QTZ  O117011707  19.191   0.831   1.768
    1QTZ  O117011708  19.793   0.753   2.310
    1QTZ  O117011709  19.525   0.805   1.332
    1QTZ  Si11711710  19.993   0.597   1.423
    1QTZ  Si11711711  19.427   0.650   2.325
    1QTZ  Si11711712  19.716   0.536   1.939
    1QTZ  Si11711713  19.229   0.780   1.930
    1QTZ  Si11711714  19.819   0.785   2.484
    1QTZ  Si11711715  19.552   0.773   1.503
    1QTZ  Si11711716  19.508   0.913   2.505
    1QTZ  Si11711717  19.253   0.850   1.605
    1QTZ  Si11711718  19.808   0.780   2.133
    1QTZ  Si11711719  19.410   0.536   2.008
    1QTZ  Si11711720  20.037   0.536   2.526
    1QTZ  Si11711721  19.730   0.522   1.601
    1QTZ  O117211722  19.542   1.003   1.106
    1QTZ  O117211723  19.839   0.928   0.559
    1QTZ  O117211724  19.410   1.386   0.672
    1QTZ  O117211725  19.959   1.366   1.037
    1QTZ  O117211726  19.638   1.411   0.025
    1QTZ  O117211727  19.720   1.301   1.113
    1QTZ  O117211728  19.448   1.350   0.201
    1QTZ  O117211729  20.005   1.256   0.661
    1QTZ  O117311730  19.534   1.080   0.822
    1QTZ  O117311731  19.766   1.002   0.279
    1QTZ  O117311732  19.480   1.251   1.056
    1QTZ  O117311733  19.195   1.299   0.177
    1QTZ  O117311734  19.783   1.181   0.525
    1QTZ  O117311735  19.394   1.138   0.580
    1QTZ  O117311736  19.883   1.115   1.023
    1QTZ  O117311737  19.625   1.159   0.114
    1QTZ  O117311738  19.893   1.098   0.034
    1QTZ  O117311739  19.309   1.059   0.992
    1QTZ  O117411740  19.604   1.001   0.531
    1QTZ  O117411741  19.281   1.364   0.433
    1QTZ  O117411742  19.786   1.283   0.817
    1QTZ  O117411743  19.365   1.222   0.003
    1QTZ  Si11711744  16.714   1.163   0.084
    1QTZ  Si11711745  19.472   1.099   0.985
    1QTZ  Si11711746  19.752   1.030   0.456
    1QTZ  Si11711747  19.315   1.284   0.582
    1QTZ  Si11711748  19.830   1.268   0.987
    1QTZ  Si11711749  19.522   1.284   0.064
    1QTZ  Si11711750  19.566   1.344   1.166
    1QTZ  Si11711751  19.298   1.398   0.265
    1QTZ  Si11711752  19.842   1.283   0.650
    1QTZ  Si11711753  19.495   1.029   0.660
    1QTZ  Si11711754  20.007   1.022   1.087
    1QTZ  Si11711755  19.740   1.035   0.105
    1QTZ  O117511756  19.530   1.049   2.413
    1QTZ  O117511757  19.778   0.932   2.064
    1QTZ  O117511758  19.331   1.385   2.009
    1QTZ  O117511759  19.934   1.407   2.475
    1QTZ  O117611760  19.676   1.363   1.566
    1QTZ  O117611761  19.666   1.346   2.556
    1QTZ  O117611762  19.417   1.307   1.597
    1QTZ  O117611763  19.955   1.251   2.060
    1QTZ  O117611764  19.445   1.114   2.157
    1QTZ  O117611765  19.774   1.034   1.772
    1QTZ  O117611766  19.462   1.305   2.380
    1QTZ  O117611767  19.183   1.251   1.483
    1QTZ  O117611768  19.721   1.176   2.031
    1QTZ  O117611769  19.318   1.136   1.917
    1QTZ  O117711770  19.921   1.161   2.565
    1QTZ  O117711771  19.601   1.116   1.551
    1QTZ  O117711772  19.840   1.052   1.476
    1QTZ  O117711773  19.277   1.100   2.388
    1QTZ  O117711774  19.555   1.006   1.929
    1QTZ  O117711775  19.192   1.327   1.767
    1QTZ  O117711776  19.792   1.251   2.311
    1QTZ  O117711777  19.526   1.302   1.332
    1QTZ  Si11711778  19.993   1.094   1.423
    1QTZ  Si11711779  19.427   1.148   2.325
    1QTZ  Si11711780  19.718   1.034   1.939
    1QTZ  Si11711781  19.230   1.277   1.930
    1QTZ  Si11711782  19.818   1.283   2.485
    1QTZ  Si11711783  19.552   1.270   1.503
    1QTZ  Si11711784  19.508   1.411   2.506
    1QTZ  Si11711785  19.254   1.347   1.605
    1QTZ  Si11711786  19.806   1.279   2.134
    1QTZ  Si11711787  19.412   1.034   2.008
    1QTZ  Si11711788  20.037   1.034   2.526
    1QTZ  Si11711789  19.730   1.019   1.602
    1QTZ  O117911790  19.543   1.500   1.106
    1QTZ  O117911791  19.839   1.426   0.559
    1QTZ  O117911792  19.408   1.884   0.672
    1QTZ  O117911793  19.959   1.863   1.038
    1QTZ  O117911794  19.638   1.909   0.025
    1QTZ  O117911795  19.720   1.800   1.114
    1QTZ  O117911796  19.448   1.848   0.201
    1QTZ  O117911797  20.006   1.755   0.662
    1QTZ  O117911798  19.534   1.578   0.822
    1QTZ  O117911799  19.767   1.501   0.279
    1QTZ  O118011800  19.480   1.749   1.057
    1QTZ  O118011801  19.195   1.797   0.177
    1QTZ  O118011802  19.785   1.679   0.525
    1QTZ  O118011803  19.395   1.635   0.580
    1QTZ  O118011804  19.883   1.612   1.024
    1QTZ  O118011805  19.625   1.657   0.114
    1QTZ  O118011806  19.893   1.596   0.034
    1QTZ  O118011807  19.309   1.556   0.992
    1QTZ  O118011808  19.605   1.500   0.531
    1QTZ  O118011809  19.281   1.862   0.432
    1QTZ  O118111810  19.787   1.781   0.817
    1QTZ  O118111811  19.365   1.720   0.003
    1QTZ  Si11811812  16.715   1.660   0.084
    1QTZ  Si11811813  19.472   1.597   0.985
    1QTZ  Si11811814  19.753   1.528   0.456
    1QTZ  Si11811815  19.314   1.781   0.582
    1QTZ  Si11811816  19.830   1.766   0.988
    1QTZ  Si11811817  19.522   1.781   0.063
    1QTZ  Si11811818  19.566   1.842   1.167
    1QTZ  Si11811819  19.298   1.895   0.265
    1QTZ  Si11811820  19.843   1.781   0.650
    1QTZ  Si11811821  19.496   1.528   0.660
    1QTZ  Si11811822  20.007   1.519   1.087
    1QTZ  Si11811823  19.741   1.533   0.105
    1QTZ  O118211824  19.530   1.547   2.413
    1QTZ  O118211825  19.774   1.430   2.065
    1QTZ  O118211826  19.332   1.883   2.009
    1QTZ  O118211827  19.934   1.905   2.475
    1QTZ  O118211828  19.676   1.861   1.567
    1QTZ  O118211829  19.666   1.843   2.555
    1QTZ  O118311830  19.416   1.805   1.598
    1QTZ  O118311831  19.955   1.745   2.058
    1QTZ  O118311832  19.444   1.611   2.157
    1QTZ  O118311833  19.773   1.531   1.773
    1QTZ  O118311834  19.463   1.803   2.379
    1QTZ  O118311835  19.182   1.749   1.484
    1QTZ  O118311836  19.720   1.674   2.031
    1QTZ  O118311837  19.315   1.634   1.918
    1QTZ  O118311838  19.921   1.659   2.564
    1QTZ  O118311839  19.601   1.614   1.552
    1QTZ  O118411840  19.840   1.550   1.476
    1QTZ  O118411841  19.276   1.598   2.389
    1QTZ  O118411842  19.553   1.505   1.928
    1QTZ  O118411843  19.191   1.826   1.768
    1QTZ  O118411844  19.793   1.748   2.310
    1QTZ  O118411845  19.525   1.800   1.332
    1QTZ  Si11811846  19.993   1.592   1.423
    1QTZ  Si11811847  19.427   1.645   2.325
    1QTZ  Si11811848  19.716   1.532   1.939
    1QTZ  Si11811849  19.230   1.776   1.930
    1QTZ  Si11811850  19.819   1.781   2.484
    1QTZ  Si11811851  19.552   1.768   1.503
    1QTZ  Si11811852  19.508   1.908   2.505
    1QTZ  Si11811853  19.253   1.845   1.605
    1QTZ  Si11811854  19.808   1.776   2.133
    1QTZ  Si11811855  19.410   1.532   2.008
    1QTZ  Si11811856  20.037   1.531   2.526
    1QTZ  Si11811857  19.730   1.517   1.602
    1QTZ  O118511858  19.542   1.998   1.106
    1QTZ  O118511859  19.839   1.923   0.559
    1QTZ  O118611860  19.410   2.382   0.671
    1QTZ  O118611861  19.959   2.361   1.037
    1QTZ  O118611862  19.639   2.406   0.024
    1QTZ  O118611863  19.720   2.297   1.113
    1QTZ  O118611864  19.449   2.346   0.201
    1QTZ  O118611865  20.005   2.251   0.660
    1QTZ  O118611866  19.534   2.075   0.822
    1QTZ  O118611867  19.766   1.998   0.279
    1QTZ  O118611868  19.480   2.247   1.056
    1QTZ  O118611869  19.196   2.295   0.176
    1QTZ  O118711870  19.782   2.177   0.525
    1QTZ  O118711871  19.395   2.133   0.580
    1QTZ  O118711872  19.884   2.110   1.023
    1QTZ  O118711873  19.626   2.154   0.114
    1QTZ  O118711874  19.893   2.093   0.034
    1QTZ  O118711875  19.309   2.054   0.992
    1QTZ  O118711876  19.604   1.995   0.531
    1QTZ  O118711877  19.282   2.359   0.432
    1QTZ  O118711878  19.786   2.278   0.817
    1QTZ  O118711879  19.365   2.217   0.003
    1QTZ  Si11811880  16.715   2.158   0.084
    1QTZ  Si11811881  19.472   2.094   0.985
    1QTZ  Si11811882  19.752   2.025   0.456
    1QTZ  Si11811883  19.315   2.280   0.582
    1QTZ  Si11811884  19.830   2.264   0.987
    1QTZ  Si11811885  19.522   2.279   0.063
    1QTZ  Si11811886  19.567   2.339   1.166
    1QTZ  Si11811887  19.299   2.393   0.264
    1QTZ  Si11811888  19.842   2.278   0.649
    1QTZ  Si11811889  19.495   2.025   0.660
    1QTZ  Si11811890  20.008   2.017   1.086
    1QTZ  Si11811891  19.741   2.030   0.105
    1QTZ  O118911892  19.530   2.045   2.413
    1QTZ  O118911893  19.778   1.928   2.064
    1QTZ  O118911894  19.331   2.380   2.009
    1QTZ  O118911895  19.934   2.402   2.475
    1QTZ  O118911896  19.677   2.359   1.566
    1QTZ  O118911897  19.666   2.342   2.555
    1QTZ  O118911898  19.417   2.303   1.597
    1QTZ  O118911899  19.955   2.246   2.059
    1QTZ  O119011900  19.445   2.109   2.157
    1QTZ  O119011901  19.774   2.029   1.772
    1QTZ  O119011902  19.463   2.300   2.379
    1QTZ  O119011903  19.184   2.246   1.483
    1QTZ  O119011904  19.721   2.172   2.031
    1QTZ  O119011905  19.317   2.131   1.917
    1QTZ  O119011906  19.921   2.157   2.564
    1QTZ  O119011907  19.601   2.112   1.551
    1QTZ  O119011908  19.840   2.047   1.476
    1QTZ  O119011909  19.277   2.096   2.388
    1QTZ  O119111910  19.555   2.002   1.928
    1QTZ  O119111911  19.192   2.323   1.767
    1QTZ  O119111912  19.793   2.247   2.311
    1QTZ  O119111913  19.526   2.298   1.332
    1QTZ  Si11911914  19.994   2.090   1.423
    1QTZ  Si11911915  19.427   2.143   2.325
    1QTZ  Si11911916  19.718   2.029   1.939
    1QTZ  Si11911917  19.231   2.272   1.929
    1QTZ  Si11911918  19.819   2.279   2.485
    1QTZ  Si11911919  19.553   2.266   1.502
    1QTZ  Si11911920  19.508   2.406   2.505
    1QTZ  Si11911921  19.254   2.343   1.604
    1QTZ  Si11911922  19.807   2.274   2.133
    1QTZ  Si11911923  19.412   2.029   2.008
    1QTZ  Si11911924  20.037   2.029   2.526
    1QTZ  Si11911925  19.730   2.015   1.602
    1QTZ  O119211926  19.544   2.496   1.105
    1QTZ  O119211927  19.839   2.421   0.558
    1QTZ  O119211928  19.408   2.879   0.672
    1QTZ  O119211929  19.959   2.859   1.037
    1QTZ  O119311930  19.638   2.904   0.024
    1QTZ  O119311931  19.720   2.795   1.113
    1QTZ  O119311932  19.448   2.843   0.201
    1QTZ  O119311933  20.006   2.750   0.661
    1QTZ  O119311934  19.535   2.574   0.821
    1QTZ  O119311935  19.767   2.496   0.278
    1QTZ  O119311936  19.481   2.744   1.056
    1QTZ  O119311937  19.195   2.792   0.176
    1QTZ  O119311938  19.785   2.675   0.524
    1QTZ  O119311939  19.395   2.631   0.580
    1QTZ  O119411940  19.884   2.608   1.023
    1QTZ  O119411941  19.625   2.652   0.114
    1QTZ  O119411942  19.893   2.591   0.033
    1QTZ  O119411943  19.309   2.552   0.991
    1QTZ  O119411944  19.605   2.495   0.530
    1QTZ  O119411945  19.281   2.857   0.432
    1QTZ  O119411946  19.787   2.776   0.816
    1QTZ  O119411947  19.365   2.715   0.002
    1QTZ  Si11911948  16.715   2.656   0.083
    1QTZ  Si11911949  19.472   2.592   0.984
    1QTZ  Si11911950  19.753   2.523   0.455
    1QTZ  Si11911951  19.314   2.777   0.581
    1QTZ  Si11911952  19.830   2.762   0.987
    1QTZ  Si11911953  19.522   2.777   0.063
    1QTZ  Si11911954  19.567   2.837   1.166
    1QTZ  Si11911955  19.298   2.891   0.264
    1QTZ  Si11911956  19.844   2.777   0.650
    1QTZ  Si11911957  19.496   2.524   0.659
    1QTZ  Si11911958  20.008   2.515   1.086
    1QTZ  Si11911959  19.741   2.528   0.104
    1QTZ  O119611960  19.530   2.543   2.413
    1QTZ  O119611961  19.775   2.426   2.064
    1QTZ  O119611962  19.332   2.878   2.009
    1QTZ  O119611963  19.934   2.900   2.475
    1QTZ  O119611964  19.676   2.856   1.566
    1QTZ  O119611965  19.666   2.839   2.555
    1QTZ  O119611966  19.417   2.800   1.597
    1QTZ  O119611967  19.955   2.742   2.058
    1QTZ  O119611968  19.444   2.607   2.157
    1QTZ  O119611969  19.773   2.527   1.772
    1QTZ  O119711970  19.463   2.798   2.379
    1QTZ  O119711971  19.183   2.744   1.483
    1QTZ  O119711972  19.720   2.670   2.030
    1QTZ  O119711973  19.316   2.629   1.917
    1QTZ  O119711974  19.921   2.655   2.564
    1QTZ  O119711975  19.601   2.610   1.551
    1QTZ  O119711976  19.840   2.546   1.475
    1QTZ  O119711977  19.277   2.594   2.388
    1QTZ  O119711978  19.554   2.500   1.927
    1QTZ  O119711979  19.192   2.821   1.767
    1QTZ  O119811980  19.793   2.744   2.310
    1QTZ  O119811981  19.526   2.795   1.332
    1QTZ  Si11911982  19.994   2.588   1.423
    1QTZ  Si11911983  19.427   2.641   2.324
    1QTZ  Si11911984  19.717   2.527   1.939
    1QTZ  Si11911985  19.230   2.771   1.930
    1QTZ  Si11911986  19.819   2.777   2.484
    1QTZ  Si11911987  19.552   2.764   1.502
    1QTZ  Si11911988  19.508   2.904   2.505
    1QTZ  Si11911989  19.254   2.840   1.604
    1QTZ  Si11911990  19.807   2.772   2.132
    1QTZ  Si11911991  19.411   2.527   2.007
    1QTZ  Si11911992  20.037   2.527   2.525
    1QTZ  Si11911993  19.730   2.513   1.601
    1QTZ  O119911994  19.543   2.993   1.106
    1QTZ  O119911995  19.839   2.919   0.558
    1QTZ  O119911996  19.410   3.377   0.671
    1QTZ  O119911997  19.959   3.357   1.037
    1QTZ  O119911998  19.638   3.402   0.024
    1QTZ  O119911999  19.720   3.292   1.113
    1QTZ  O120012000  19.449   3.341   0.200
    1QTZ  O120012001  20.005   3.247   0.660
    1QTZ  O120012002  19.534   3.070   0.822
    1QTZ  O120012003  19.766   2.993   0.278
    1QTZ  O120012004  19.480   3.242   1.056
    1QTZ  O120012005  19.195   3.290   0.176
    1QTZ  O120012006  19.783   3.172   0.525
    1QTZ  O120012007  19.395   3.128   0.579
    1QTZ  O120012008  19.884   3.106   1.022
    1QTZ  O120012009  19.625   3.150   0.114
    1QTZ  O120112010  19.893   3.089   0.033
    1QTZ  O120112011  19.309   3.050   0.992
    1QTZ  O120112012  19.605   2.991   0.531
    1QTZ  O120112013  19.281   3.355   0.432
    1QTZ  O120112014  19.786   3.274   0.816
    1QTZ  O120112015  19.365   3.213   0.002
    1QTZ  Si12012016  16.715   3.154   0.083
    1QTZ  Si12012017  19.472   3.090   0.984
    1QTZ  Si12012018  19.752   3.021   0.456
    1QTZ  Si12012019  19.315   3.275   0.581
    1QTZ  Si12012020  19.830   3.259   0.987
    1QTZ  Si12012021  19.522   3.275   0.063
    1QTZ  Si12012022  19.567   3.335   1.166
    1QTZ  Si12012023  19.298   3.388   0.264
    1QTZ  Si12012024  19.842   3.274   0.649
    1QTZ  Si12012025  19.495   3.020   0.659
    1QTZ  Si12012026  20.008   3.013   1.086
    1QTZ  Si12012027  19.741   3.026   0.104
    1QTZ  O120212028  19.530   3.041   2.412
    1QTZ  O120212029  19.777   2.923   2.063
    1QTZ  O120312030  19.331   3.376   2.009
    1QTZ  O120312031  19.934   3.398   2.475
    1QTZ  O120312032  19.676   3.354   1.566
    1QTZ  O120312033  19.666   3.337   2.555
    1QTZ  O120312034  19.417   3.298   1.597
    1QTZ  O120312035  19.955   3.240   2.058
    1QTZ  O120312036  19.445   3.105   2.156
    1QTZ  O120312037  19.774   3.025   1.772
    1QTZ  O120312038  19.463   3.296   2.379
    1QTZ  O120312039  19.183   3.242   1.483
    1QTZ  O120412040  19.721   3.167   2.030
    1QTZ  O120412041  19.316   3.127   1.917
    1QTZ  O120412042  19.921   3.152   2.564
    1QTZ  O120412043  19.601   3.107   1.551
    1QTZ  O120412044  19.840   3.043   1.475
    1QTZ  O120412045  19.277   3.091   2.388
    1QTZ  O120412046  19.555   2.998   1.927
    1QTZ  O120412047  19.192   3.319   1.767
    1QTZ  O120412048  19.793   3.242   2.310
    1QTZ  O120412049  19.526   3.293   1.332
    1QTZ  Si12012050  19.994   3.085   1.422
    1QTZ  Si12012051  19.427   3.139   2.324
    1QTZ  Si12012052  19.717   3.025   1.938
    1QTZ  Si12012053  19.230   3.268   1.930
    1QTZ  Si12012054  19.819   3.274   2.484
    1QTZ  Si12012055  19.552   3.262   1.502
    1QTZ  Si12012056  19.508   3.402   2.505
    1QTZ  Si12012057  19.254   3.338   1.604
    1QTZ  Si12012058  19.808   3.269   2.133
    1QTZ  Si12012059  19.411   3.025   2.007
    1QTZ  Si12012060  20.037   3.025   2.526
    1QTZ  Si12012061  19.730   3.010   1.601
    1QTZ  O120612062  16.760   0.061   0.209
    1QTZ  O120612063  16.743   0.006   1.533
    1QTZ  O120612064  20.034   0.058   1.257
    1QTZ  O120612065  16.760   0.559   0.210
    1QTZ  O120612066  16.743   0.504   1.533
    1QTZ  O120612067  20.034   0.555   1.257
    1QTZ  O120612068  16.760   1.057   0.210
    1QTZ  O120612069  16.743   1.001   1.533
    1QTZ  O120712070  20.034   1.053   1.257
    1QTZ  O120712071  16.760   1.555   0.210
    1QTZ  O120712072  16.742   1.499   1.533
    1QTZ  O120712073  20.034   1.550   1.257
    1QTZ  O120712074  16.760   2.052   0.210
    1QTZ  O120712075  16.743   1.997   1.533
    1QTZ  O120712076  16.698   2.049   1.257
    1QTZ  O120712077  16.760   2.550   0.209
    1QTZ  O120712078  16.743   2.495   1.533
    1QTZ  O120712079  16.697   2.546   1.257
    1QTZ  O120812080  16.760   3.048   0.209
    1QTZ  O120812081  16.743   2.993   1.532
    1QTZ  O120812082  16.698   3.044   1.256
    1QTZ  O120812083  20.029   0.304   0.176
    1QTZ  O120812084  20.017   0.255   1.483
    1QTZ  O120812085  20.029   0.802   0.177
    1QTZ  O120812086  20.017   0.753   1.483
    1QTZ  O120812087  20.029   1.299   0.177
    1QTZ  O120812088  20.016   1.251   1.484
    1QTZ  O120812089  20.030   1.797   0.177
    1QTZ  O120912090  20.018   1.749   1.483
    1QTZ  O120912091  20.030   2.295   0.176
    1QTZ  O120912092  20.017   2.246   1.483
    1QTZ  O120912093  20.030   2.792   0.176
    1QTZ  O120912094  20.018   2.744   1.483
    1QTZ  O120912095  20.029   3.290   0.176
    1QTZ  O120912096  20.017   3.242   1.483
    1QTZ  O120912097  20.377   0.007   1.106
    1QTZ  O120912098  20.931   0.061   0.210
    1QTZ  O120912099  20.673   3.416   0.558
    1QTZ  O121012100  20.243   0.391   0.672
    1QTZ  O121012101  20.793   0.370   1.038
    1QTZ  O121012102  20.472   0.416   0.025
    1QTZ  O121012103  20.554   0.306   1.114
    1QTZ  O121012104  20.283   0.355   0.201
    1QTZ  O121012105  20.839   0.261   0.661
    1QTZ  O121012106  20.368   0.084   0.822
    1QTZ  O121012107  20.600   0.007   0.279
    1QTZ  O121012108  20.314   0.256   1.056
    1QTZ  O121012109  20.617   0.186   0.525
    1QTZ  O121112110  20.229   0.142   0.580
    1QTZ  O121112111  20.718   0.119   1.023
    1QTZ  O121112112  20.459   0.163   0.114
    1QTZ  O121112113  20.727   0.102   0.034
    1QTZ  O121112114  20.143   0.063   0.992
    1QTZ  O121112115  20.439   0.005   0.531
    1QTZ  O121112116  20.115   0.368   0.432
    1QTZ  O121112117  20.620   0.287   0.817
    1QTZ  O121112118  20.199   0.227   0.002
    1QTZ  Si12112119  20.885   0.167   0.084
    1QTZ  Si12112120  20.306   0.103   0.985
    1QTZ  Si12112121  20.586   0.034   0.456
    1QTZ  Si12112122  20.149   0.288   0.581
    1QTZ  Si12112123  20.664   0.273   0.988
    1QTZ  Si12112124  20.356   0.288   0.063
    1QTZ  Si12112125  20.400   0.348   1.166
    1QTZ  Si12112126  20.132   0.402   0.264
    1QTZ  Si12112127  20.676   0.288   0.650
    1QTZ  Si12112128  20.329   0.034   0.659
    1QTZ  Si12112129  20.842   0.026   1.086
    1QTZ  Si12112130  20.575   0.040   0.105
    1QTZ  O121312131  20.364   0.054   2.412
    1QTZ  O121312132  20.914   0.006   1.533
    1QTZ  O121312133  20.610   3.421   2.064
    1QTZ  O121312134  20.165   0.390   2.009
    1QTZ  O121312135  20.768   0.411   2.475
    1QTZ  O121312136  20.510   0.368   1.566
    1QTZ  O121312137  20.500   0.350   2.555
    1QTZ  O121312138  20.251   0.311   1.597
    1QTZ  O121312139  20.790   0.252   2.058
    1QTZ  O121412140  20.278   0.119   2.156
    1QTZ  O121412141  20.868   0.057   1.257
    1QTZ  O121412142  20.607   0.038   1.772
    1QTZ  O121412143  20.297   0.309   2.379
    1QTZ  O121412144  20.555   0.181   2.031
    1QTZ  O121412145  20.150   0.141   1.917
    1QTZ  O121412146  20.755   0.165   2.564
    1QTZ  O121412147  20.435   0.121   1.551
    1QTZ  O121412148  20.674   0.057   1.475
    1QTZ  O121412149  20.111   0.105   2.388
    1QTZ  O121512150  20.388   0.012   1.927
    1QTZ  O121512151   0.005   0.333   1.767
    1QTZ  O121512152  20.627   0.255   2.310
    1QTZ  O121512153  20.360   0.307   1.332
    1QTZ  Si12112154  20.828   0.099   1.423
    1QTZ  Si12112155  20.261   0.152   2.324
    1QTZ  Si12112156  20.551   0.038   1.939
    1QTZ  Si12112157  20.064   0.282   1.930
    1QTZ  Si12112158  20.653   0.287   2.485
    1QTZ  Si12112159  20.386   0.275   1.503
    1QTZ  Si12112160  20.342   0.415   2.505
    1QTZ  Si12112161  20.088   0.352   1.604
    1QTZ  Si12112162  20.642   0.282   2.133
    1QTZ  Si12112163  20.245   0.039   2.007
    1QTZ  Si12112164  20.871   0.038   2.526
    1QTZ  Si12112165  20.564   0.024   1.601
    1QTZ  O121612166  20.194   0.474   2.586
    1QTZ  O121612167  20.194   0.972   2.587
    1QTZ  O121612168  20.194   1.470   2.587
    1QTZ  O121612169  20.194   1.968   2.587
    1QTZ  O121712170  20.194   2.466   2.586
    1QTZ  O121712171  20.194   2.963   2.586
    1QTZ  O121712172  20.194   3.461   2.586
    1QTZ  O121712173  21.028   0.474   2.587
    1QTZ  O121712174  21.028   0.972   2.587
    1QTZ  O121712175  21.028   1.470   2.587
    1QTZ  O121712176  21.028   1.968   2.586
    1QTZ  O121712177  21.028   2.466   2.587
    1QTZ  O121712178  21.028   2.963   2.586
    1QTZ  O121712179  21.028   3.461   2.587
    1QTZ  O121812180  21.863   0.474   2.587
    1QTZ  O121812181  21.862   0.972   2.587
    1QTZ  O121812182  21.863   1.470   2.587
    1QTZ  O121812183  21.862   1.968   2.587
    1QTZ  O121812184  21.863   2.466   2.587
    1QTZ  O121812185  21.863   2.963   2.587
    1QTZ  O121812186  21.863   3.461   2.587
    1QTZ  O121812187  22.697   0.475   2.587
    1QTZ  O121812188  22.697   0.972   2.587
    1QTZ  O121812189  22.697   1.470   2.587
    1QTZ  O121912190  22.697   1.968   2.587
    1QTZ  O121912191  22.697   2.466   2.587
    1QTZ  O121912192  22.697   2.963   2.586
    1QTZ  O121912193  22.697   3.461   2.586
    1QTZ  O121912194  20.377   0.505   1.106
    1QTZ  O121912195  20.931   0.559   0.210
    1QTZ  O121912196  20.673   0.430   0.558
    1QTZ  O121912197  20.243   0.889   0.672
    1QTZ  O121912198  20.793   0.868   1.037
    1QTZ  O121912199  20.473   0.913   0.025
    1QTZ  O122012200  20.554   0.804   1.113
    1QTZ  O122012201  20.283   0.852   0.201
    1QTZ  O122012202  20.839   0.758   0.661
    1QTZ  O122012203  20.368   0.582   0.822
    1QTZ  O122012204  20.600   0.505   0.278
    1QTZ  O122012205  20.314   0.753   1.056
    1QTZ  O122012206  20.618   0.683   0.525
    1QTZ  O122012207  20.229   0.640   0.580
    1QTZ  O122012208  20.718   0.617   1.023
    1QTZ  O122012209  20.459   0.661   0.114
    1QTZ  O122112210  20.727   0.600   0.034
    1QTZ  O122112211  20.143   0.561   0.992
    1QTZ  O122112212  20.438   0.503   0.530
    1QTZ  O122112213  20.115   0.866   0.433
    1QTZ  O122112214  20.620   0.784   0.817
    1QTZ  O122112215  20.199   0.725   0.003
    1QTZ  Si12212216  20.885   0.665   0.084
    1QTZ  Si12212217  20.306   0.601   0.985
    1QTZ  Si12212218  20.586   0.532   0.456
    1QTZ  Si12212219  20.149   0.786   0.582
    1QTZ  Si12212220  20.664   0.770   0.987
    1QTZ  Si12212221  20.356   0.786   0.063
    1QTZ  Si12212222  20.401   0.846   1.166
    1QTZ  Si12212223  20.132   0.900   0.265
    1QTZ  Si12212224  20.677   0.785   0.650
    1QTZ  Si12212225  20.329   0.532   0.659
    1QTZ  Si12212226  20.842   0.524   1.087
    1QTZ  Si12212227  20.575   0.537   0.105
    1QTZ  O122212228  20.364   0.552   2.413
    1QTZ  O122212229  20.914   0.504   1.533
    1QTZ  O122312230  20.612   0.434   2.064
    1QTZ  O122312231  20.165   0.887   2.009
    1QTZ  O122312232  20.768   0.909   2.476
    1QTZ  O122312233  20.511   0.866   1.566
    1QTZ  O122312234  20.500   0.848   2.556
    1QTZ  O122312235  20.251   0.809   1.597
    1QTZ  O122312236  20.789   0.753   2.060
    1QTZ  O122312237  20.279   0.616   2.157
    1QTZ  O122312238  20.868   0.555   1.258
    1QTZ  O122312239  20.608   0.536   1.772
    1QTZ  O122412240  20.297   0.807   2.379
    1QTZ  O122412241  20.555   0.678   2.031
    1QTZ  O122412242  20.152   0.638   1.917
    1QTZ  O122412243  20.755   0.663   2.565
    1QTZ  O122412244  20.435   0.619   1.552
    1QTZ  O122412245  20.674   0.554   1.476
    1QTZ  O122412246  20.111   0.602   2.388
    1QTZ  O122412247  20.389   0.508   1.929
    1QTZ  O122412248   0.005   0.829   1.767
    1QTZ  O122412249  20.626   0.753   2.311
    1QTZ  O122512250  20.360   0.804   1.332
    1QTZ  Si12212251  20.828   0.597   1.424
    1QTZ  Si12212252  20.261   0.650   2.325
    1QTZ  Si12212253  20.552   0.536   1.940
    1QTZ  Si12212254  20.065   0.779   1.929
    1QTZ  Si12212255  20.652   0.785   2.485
    1QTZ  Si12212256  20.387   0.773   1.503
    1QTZ  Si12212257  20.342   0.913   2.506
    1QTZ  Si12212258  20.088   0.849   1.604
    1QTZ  Si12212259  20.641   0.781   2.134
    1QTZ  Si12212260  20.246   0.536   2.008
    1QTZ  Si12212261  20.871   0.536   2.526
    1QTZ  Si12212262  20.564   0.521   1.602
    1QTZ  O122612263  20.377   1.002   1.106
    1QTZ  O122612264  20.931   1.057   0.210
    1QTZ  O122612265  20.673   0.927   0.559
    1QTZ  O122612266  20.242   1.386   0.672
    1QTZ  O122612267  20.793   1.365   1.038
    1QTZ  O122612268  20.472   1.411   0.025
    1QTZ  O122612269  20.554   1.302   1.114
    1QTZ  O122712270  20.283   1.350   0.201
    1QTZ  O122712271  20.840   1.257   0.662
    1QTZ  O122712272  20.368   1.080   0.822
    1QTZ  O122712273  20.601   1.003   0.279
    1QTZ  O122712274  20.314   1.251   1.057
    1QTZ  O122712275  20.619   1.181   0.525
    1QTZ  O122712276  20.229   1.138   0.580
    1QTZ  O122712277  20.718   1.114   1.024
    1QTZ  O122712278  20.459   1.159   0.114
    1QTZ  O122712279  20.727   1.098   0.034
    1QTZ  O122812280  20.143   1.059   0.992
    1QTZ  O122812281  20.439   1.001   0.531
    1QTZ  O122812282  20.115   1.364   0.432
    1QTZ  O122812283  20.621   1.282   0.817
    1QTZ  O122812284  20.199   1.222   0.003
    1QTZ  Si12212285  20.885   1.163   0.084
    1QTZ  Si12212286  20.306   1.099   0.985
    1QTZ  Si12212287  20.587   1.030   0.456
    1QTZ  Si12212288  20.148   1.284   0.582
    1QTZ  Si12212289  20.664   1.268   0.988
    1QTZ  Si12212290  20.356   1.283   0.063
    1QTZ  Si12212291  20.400   1.344   1.167
    1QTZ  Si12212292  20.132   1.397   0.265
    1QTZ  Si12212293  20.677   1.283   0.651
    1QTZ  Si12212294  20.330   1.030   0.660
    1QTZ  Si12212295  20.842   1.021   1.087
    1QTZ  Si12212296  20.575   1.035   0.105
    1QTZ  O122912297  20.364   1.049   2.413
    1QTZ  O122912298  20.913   1.001   1.534
    1QTZ  O122912299  20.608   0.932   2.065
    1QTZ  O123012300  20.166   1.385   2.009
    1QTZ  O123012301  20.768   1.407   2.475
    1QTZ  O123012302  20.510   1.363   1.567
    1QTZ  O123012303  20.500   1.345   2.555
    1QTZ  O123012304  20.250   1.307   1.598
    1QTZ  O123012305  20.789   1.247   2.058
    1QTZ  O123012306  20.278   1.114   2.157
    1QTZ  O123012307  20.868   1.052   1.258
    1QTZ  O123012308  20.607   1.033   1.773
    1QTZ  O123012309  20.297   1.305   2.379
    1QTZ  O123112310  20.554   1.176   2.031
    1QTZ  O123112311  20.149   1.136   1.918
    1QTZ  O123112312  20.755   1.161   2.564
    1QTZ  O123112313  20.435   1.116   1.552
    1QTZ  O123112314  20.674   1.053   1.476
    1QTZ  O123112315  20.110   1.100   2.388
    1QTZ  O123112316  20.387   1.008   1.928
    1QTZ  O123112317   0.005   1.328   1.768
    1QTZ  O123112318  20.628   1.250   2.310
    1QTZ  O123112319  20.360   1.302   1.333
    1QTZ  Si12312320  20.828   1.094   1.423
    1QTZ  Si12312321  20.261   1.148   2.325
    1QTZ  Si12312322  20.550   1.034   1.939
    1QTZ  Si12312323  20.064   1.278   1.930
    1QTZ  Si12312324  20.653   1.283   2.485
    1QTZ  Si12312325  20.386   1.270   1.503
    1QTZ  Si12312326  20.342   1.410   2.505
    1QTZ  Si12312327  20.087   1.347   1.605
    1QTZ  Si12312328  20.642   1.278   2.133
    1QTZ  Si12312329  20.244   1.034   2.008
    1QTZ  Si12312330  20.871   1.033   2.526
    1QTZ  Si12312331  20.564   1.019   1.602
    1QTZ  O123312332  20.377   1.500   1.106
    1QTZ  O123312333  20.931   1.555   0.211
    1QTZ  O123312334  20.673   1.425   0.559
    1QTZ  O123312335  20.244   1.884   0.672
    1QTZ  O123312336  20.793   1.863   1.037
    1QTZ  O123312337  20.473   1.909   0.025
    1QTZ  O123312338  20.554   1.799   1.113
    1QTZ  O123312339  20.283   1.848   0.201
    1QTZ  O123412340  20.839   1.753   0.661
    1QTZ  O123412341  20.368   1.577   0.822
    1QTZ  O123412342  20.600   1.500   0.279
    1QTZ  O123412343  20.315   1.749   1.056
    1QTZ  O123412344  20.617   1.679   0.525
    1QTZ  O123412345  20.229   1.635   0.580
    1QTZ  O123412346  20.718   1.612   1.023
    1QTZ  O123412347  20.459   1.656   0.114
    1QTZ  O123412348  20.727   1.595   0.034
    1QTZ  O123412349  20.143   1.556   0.992
    1QTZ  O123512350  20.438   1.498   0.531
    1QTZ  O123512351  20.116   1.862   0.433
    1QTZ  O123512352  20.620   1.780   0.817
    1QTZ  O123512353  20.200   1.720   0.003
    1QTZ  Si12312354  20.885   1.660   0.084
    1QTZ  Si12312355  20.306   1.596   0.985
    1QTZ  Si12312356  20.586   1.527   0.456
    1QTZ  Si12312357  20.149   1.782   0.582
    1QTZ  Si12312358  20.664   1.766   0.987
    1QTZ  Si12312359  20.357   1.781   0.063
    1QTZ  Si12312360  20.401   1.841   1.166
    1QTZ  Si12312361  20.133   1.895   0.265
    1QTZ  Si12312362  20.676   1.780   0.650
    1QTZ  Si12312363  20.329   1.527   0.660
    1QTZ  Si12312364  20.842   1.519   1.087
    1QTZ  Si12312365  20.575   1.533   0.105
    1QTZ  O123612366  20.364   1.547   2.413
    1QTZ  O123612367  20.914   1.499   1.533
    1QTZ  O123612368  20.612   1.430   2.064
    1QTZ  O123612369  20.165   1.883   2.009
    1QTZ  O123712370  20.768   1.904   2.475
    1QTZ  O123712371  20.511   1.861   1.566
    1QTZ  O123712372  20.500   1.844   2.556
    1QTZ  O123712373  20.251   1.805   1.597
    1QTZ  O123712374  20.789   1.749   2.060
    1QTZ  O123712375  20.279   1.612   2.157
    1QTZ  O123712376  20.868   1.551   1.257
    1QTZ  O123712377  20.608   1.531   1.772
    1QTZ  O123712378  20.297   1.802   2.379
    1QTZ  O123712379  20.555   1.674   2.031
    1QTZ  O123812380  20.152   1.634   1.917
    1QTZ  O123812381  20.755   1.659   2.565
    1QTZ  O123812382  20.436   1.614   1.551
    1QTZ  O123812383  20.674   1.549   1.476
    1QTZ  O123812384  20.111   1.598   2.388
    1QTZ  O123812385  20.390   1.504   1.928
    1QTZ  O123812386   0.006   1.825   1.767
    1QTZ  O123812387  20.626   1.749   2.311
    1QTZ  O123812388  20.360   1.800   1.332
    1QTZ  Si12312389  20.828   1.592   1.423
    1QTZ  Si12312390  20.261   1.645   2.325
    1QTZ  Si12312391  20.552   1.531   1.939
    1QTZ  Si12312392  20.065   1.774   1.929
    1QTZ  Si12312393  20.652   1.781   2.485
    1QTZ  Si12312394  20.387   1.768   1.503
    1QTZ  Si12312395  20.342   1.908   2.506
    1QTZ  Si12312396  20.088   1.845   1.604
    1QTZ  Si12312397  20.641   1.776   2.133
    1QTZ  Si12312398  20.246   1.531   2.008
    1QTZ  Si12312399  20.871   1.531   2.526
    1QTZ  Si12412400  20.564   1.517   1.602
    1QTZ  O124012401  20.378   1.998   1.106
    1QTZ  O124012402  20.931   2.052   0.210
    1QTZ  O124012403  20.673   1.923   0.558
    1QTZ  O124012404  20.242   2.382   0.672
    1QTZ  O124012405  20.793   2.361   1.038
    1QTZ  O124012406  20.473   2.406   0.025
    1QTZ  O124012407  20.554   2.297   1.113
    1QTZ  O124012408  20.283   2.345   0.201
    1QTZ  O124012409  20.841   2.253   0.662
    1QTZ  O124112410  20.369   2.076   0.822
    1QTZ  O124112411  20.601   1.998   0.279
    1QTZ  O124112412  20.315   2.246   1.056
    1QTZ  O124112413  20.620   2.177   0.525
    1QTZ  O124112414  20.229   2.133   0.580
    1QTZ  O124112415  20.718   2.110   1.023
    1QTZ  O124112416  20.460   2.154   0.114
    1QTZ  O124112417  20.728   2.093   0.034
    1QTZ  O124112418  20.144   2.054   0.992
    1QTZ  O124112419  20.439   1.998   0.530
    1QTZ  O124212420  20.115   2.359   0.432
    1QTZ  O124212421  20.621   2.278   0.817
    1QTZ  O124212422  20.199   2.217   0.003
    1QTZ  Si12412423  20.886   2.158   0.084
    1QTZ  Si12412424  20.306   2.094   0.985
    1QTZ  Si12412425  20.587   2.025   0.456
    1QTZ  Si12412426  20.148   2.279   0.581
    1QTZ  Si12412427  20.664   2.264   0.988
    1QTZ  Si12412428  20.356   2.279   0.063
    1QTZ  Si12412429  20.401   2.339   1.166
    1QTZ  Si12412430  20.132   2.393   0.264
    1QTZ  Si12412431  20.678   2.279   0.650
    1QTZ  Si12412432  20.330   2.026   0.659
    1QTZ  Si12412433  20.842   2.017   1.086
    1QTZ  Si12412434  20.575   2.030   0.105
    1QTZ  O124312435  20.364   2.045   2.413
    1QTZ  O124312436  20.914   1.997   1.533
    1QTZ  O124312437  20.609   1.928   2.065
    1QTZ  O124312438  20.166   2.381   2.009
    1QTZ  O124312439  20.768   2.402   2.475
    1QTZ  O124412440  20.510   2.359   1.566
    1QTZ  O124412441  20.501   2.341   2.555
    1QTZ  O124412442  20.251   2.302   1.597
    1QTZ  O124412443  20.789   2.244   2.058
    1QTZ  O124412444  20.278   2.109   2.157
    1QTZ  O124412445  20.868   2.048   1.257
    1QTZ  O124412446  20.607   2.029   1.772
    1QTZ  O124412447  20.297   2.300   2.379
    1QTZ  O124412448  20.554   2.172   2.030
    1QTZ  O124412449  20.149   2.132   1.917
    1QTZ  O124512450  20.755   2.157   2.564
    1QTZ  O124512451  20.435   2.112   1.551
    1QTZ  O124512452  20.674   2.048   1.476
    1QTZ  O124512453  20.111   2.096   2.388
    1QTZ  O124512454  20.387   2.003   1.927
    1QTZ  O124512455   0.005   2.324   1.767
    1QTZ  O124512456  20.627   2.246   2.310
    1QTZ  O124512457  20.360   2.298   1.332
    1QTZ  Si12412458  20.828   2.090   1.423
    1QTZ  Si12412459  20.261   2.143   2.324
    1QTZ  Si12412460  20.550   2.029   1.939
    1QTZ  Si12412461  20.064   2.273   1.930
    1QTZ  Si12412462  20.653   2.279   2.484
    1QTZ  Si12412463  20.386   2.266   1.503
    1QTZ  Si12412464  20.342   2.406   2.505
    1QTZ  Si12412465  20.088   2.343   1.605
    1QTZ  Si12412466  20.642   2.273   2.132
    1QTZ  Si12412467  20.244   2.029   2.007
    1QTZ  Si12412468  20.872   2.029   2.526
    1QTZ  Si12412469  20.564   2.015   1.602
    1QTZ  O124712470  20.377   2.496   1.106
    1QTZ  O124712471  20.931   2.550   0.210
    1QTZ  O124712472  20.674   2.421   0.558
    1QTZ  O124712473  20.244   2.880   0.671
    1QTZ  O124712474  20.793   2.859   1.037
    1QTZ  O124712475  20.473   2.904   0.024
    1QTZ  O124712476  20.554   2.794   1.113
    1QTZ  O124712477  20.283   2.843   0.200
    1QTZ  O124712478  20.839   2.749   0.660
    1QTZ  O124712479  20.368   2.573   0.822
    1QTZ  O124812480  20.601   2.495   0.278
    1QTZ  O124812481  20.315   2.744   1.056
    1QTZ  O124812482  20.617   2.674   0.525
    1QTZ  O124812483  20.230   2.631   0.579
    1QTZ  O124812484  20.718   2.608   1.022
    1QTZ  O124812485  20.460   2.652   0.114
    1QTZ  O124812486  20.728   2.591   0.034
    1QTZ  O124812487  20.143   2.552   0.992
    1QTZ  O124812488  20.439   2.493   0.531
    1QTZ  O124812489  20.116   2.857   0.432
    1QTZ  O124912490  20.620   2.776   0.816
    1QTZ  O124912491  20.200   2.715   0.002
    1QTZ  Si12412492  20.886   2.656   0.084
    1QTZ  Si12412493  20.306   2.592   0.985
    1QTZ  Si12412494  20.586   2.522   0.456
    1QTZ  Si12412495  20.150   2.777   0.581
    1QTZ  Si12412496  20.664   2.762   0.987
    1QTZ  Si12412497  20.357   2.777   0.063
    1QTZ  Si12412498  20.401   2.837   1.165
    1QTZ  Si12412499  20.133   2.891   0.264
    1QTZ  Si12512500  20.676   2.776   0.649
    1QTZ  Si12512501  20.329   2.522   0.659
    1QTZ  Si12512502  20.842   2.515   1.086
    1QTZ  Si12512503  20.575   2.528   0.104
    1QTZ  O125012504  20.364   2.543   2.412
    1QTZ  O125012505  20.914   2.495   1.533
    1QTZ  O125012506  20.611   2.425   2.063
    1QTZ  O125012507  20.165   2.878   2.009
    1QTZ  O125012508  20.768   2.900   2.475
    1QTZ  O125012509  20.511   2.857   1.566
    1QTZ  O125112510  20.500   2.839   2.555
    1QTZ  O125112511  20.251   2.800   1.597
    1QTZ  O125112512  20.789   2.743   2.059
    1QTZ  O125112513  20.279   2.607   2.156
    1QTZ  O125112514  20.869   2.546   1.257
    1QTZ  O125112515  20.608   2.527   1.772
    1QTZ  O125112516  20.297   2.798   2.379
    1QTZ  O125112517  20.555   2.669   2.030
    1QTZ  O125112518  20.151   2.629   1.917
    1QTZ  O125112519  20.755   2.654   2.564
    1QTZ  O125212520  20.436   2.610   1.551
    1QTZ  O125212521  20.674   2.545   1.475
    1QTZ  O125212522  20.111   2.594   2.387
    1QTZ  O125212523  20.389   2.500   1.928
    1QTZ  O125212524   0.005   2.821   1.767
    1QTZ  O125212525  20.627   2.744   2.310
    1QTZ  O125212526  20.360   2.796   1.331
    1QTZ  Si12512527  20.828   2.588   1.423
    1QTZ  Si12512528  20.261   2.641   2.324
    1QTZ  Si12512529  20.552   2.527   1.939
    1QTZ  Si12512530  20.064   2.771   1.929
    1QTZ  Si12512531  20.653   2.776   2.484
    1QTZ  Si12512532  20.387   2.764   1.502
    1QTZ  Si12512533  20.342   2.904   2.505
    1QTZ  Si12512534  20.088   2.840   1.604
    1QTZ  Si12512535  20.641   2.771   2.133
    1QTZ  Si12512536  20.246   2.527   2.007
    1QTZ  Si12512537  20.871   2.527   2.526
    1QTZ  Si12512538  20.564   2.513   1.601
    1QTZ  O125312539  20.378   2.994   1.105
    1QTZ  O125412540  20.931   3.048   0.210
    1QTZ  O125412541  20.673   2.919   0.558
    1QTZ  O125412542  20.242   3.377   0.672
    1QTZ  O125412543  20.793   3.357   1.037
    1QTZ  O125412544  20.472   3.402   0.025
    1QTZ  O125412545  20.554   3.293   1.113
    1QTZ  O125412546  20.283   3.341   0.201
    1QTZ  O125412547  20.840   3.248   0.661
    1QTZ  O125412548  20.369   3.071   0.821
    1QTZ  O125412549  20.601   2.994   0.278
    1QTZ  O125512550  20.315   3.242   1.056
    1QTZ  O125512551  20.619   3.172   0.524
    1QTZ  O125512552  20.229   3.129   0.579
    1QTZ  O125512553  20.718   3.106   1.023
    1QTZ  O125512554  20.459   3.150   0.113
    1QTZ  O125512555  20.728   3.089   0.033
    1QTZ  O125512556  20.143   3.050   0.991
    1QTZ  O125512557  20.439   2.993   0.530
    1QTZ  O125512558  20.115   3.355   0.432
    1QTZ  O125512559  20.621   3.273   0.816
    1QTZ  O125612560  20.199   3.213   0.002
    1QTZ  Si12512561  20.886   3.154   0.083
    1QTZ  Si12512562  20.306   3.090   0.984
    1QTZ  Si12512563  20.587   3.021   0.455
    1QTZ  Si12512564  20.148   3.275   0.581
    1QTZ  Si12512565  20.664   3.259   0.987
    1QTZ  Si12512566  20.356   3.274   0.063
    1QTZ  Si12512567  20.401   3.335   1.166
    1QTZ  Si12512568  20.132   3.388   0.264
    1QTZ  Si12512569  20.677   3.274   0.650
    1QTZ  Si12512570  20.330   3.021   0.659
    1QTZ  Si12512571  20.842   3.013   1.086
    1QTZ  Si12512572  20.575   3.026   0.104
    1QTZ  O125712573  20.364   3.040   2.412
    1QTZ  O125712574  20.914   2.992   1.533
    1QTZ  O125712575  20.610   2.923   2.064
    1QTZ  O125712576  20.165   3.376   2.009
    1QTZ  O125712577  20.768   3.398   2.475
    1QTZ  O125712578  20.511   3.354   1.566
    1QTZ  O125712579  20.500   3.337   2.555
    1QTZ  O125812580  20.251   3.298   1.597
    1QTZ  O125812581  20.789   3.240   2.058
    1QTZ  O125812582  20.278   3.105   2.156
    1QTZ  O125812583  20.868   3.044   1.257
    1QTZ  O125812584  20.608   3.024   1.772
    1QTZ  O125812585  20.297   3.296   2.379
    1QTZ  O125812586  20.555   3.167   2.030
    1QTZ  O125812587  20.151   3.127   1.917
    1QTZ  O125812588  20.755   3.152   2.564
    1QTZ  O125812589  20.435   3.107   1.551
    1QTZ  O125912590  20.674   3.043   1.476
    1QTZ  O125912591  20.111   3.091   2.388
    1QTZ  O125912592  20.389   2.998   1.928
    1QTZ  O125912593   0.005   3.319   1.767
    1QTZ  O125912594  20.627   3.242   2.310
    1QTZ  O125912595  20.360   3.293   1.332
    1QTZ  Si12512596  20.828   3.085   1.423
    1QTZ  Si12512597  20.261   3.139   2.324
    1QTZ  Si12512598  20.551   3.025   1.939
    1QTZ  Si12512599  20.064   3.268   1.929
    1QTZ  Si12612600  20.653   3.274   2.484
    1QTZ  Si12612601  20.386   3.261   1.502
    1QTZ  Si12612602  20.342   3.402   2.505
    1QTZ  Si12612603  20.088   3.338   1.604
    1QTZ  Si12612604  20.641   3.269   2.133
    1QTZ  Si12612605  20.245   3.025   2.007
    1QTZ  Si12612606  20.871   3.025   2.526
    1QTZ  Si12612607  20.564   3.010   1.601
    1QTZ  O126012608  21.212   0.007   1.106
    1QTZ  O126012609  21.765   0.061   0.210
    1QTZ  O126112610  21.507   3.416   0.558
    1QTZ  O126112611  21.077   0.391   0.673
    1QTZ  O126112612  21.627   0.370   1.038
    1QTZ  O126112613  21.307   0.416   0.026
    1QTZ  O126112614  21.389   0.306   1.114
    1QTZ  O126112615  21.117   0.355   0.201
    1QTZ  O126112616  21.674   0.261   0.662
    1QTZ  O126112617  21.203   0.085   0.822
    1QTZ  O126112618  21.435   0.007   0.279
    1QTZ  O126112619  21.149   0.255   1.056
    1QTZ  O126212620  20.864   0.304   0.177
    1QTZ  O126212621  21.453   0.186   0.525
    1QTZ  O126212622  21.063   0.142   0.580
    1QTZ  O126212623  21.552   0.119   1.024
    1QTZ  O126212624  21.293   0.163   0.114
    1QTZ  O126212625  21.561   0.103   0.034
    1QTZ  O126212626  20.978   0.063   0.992
    1QTZ  O126212627  21.273   0.006   0.531
    1QTZ  O126212628  20.949   0.369   0.433
    1QTZ  O126212629  21.455   0.287   0.817
    1QTZ  O126312630  21.033   0.227   0.003
    1QTZ  Si12612631  21.720   0.167   0.084
    1QTZ  Si12612632  21.141   0.103   0.985
    1QTZ  Si12612633  21.421   0.034   0.456
    1QTZ  Si12612634  20.983   0.289   0.582
    1QTZ  Si12612635  21.499   0.273   0.988
    1QTZ  Si12612636  21.190   0.288   0.064
    1QTZ  Si12612637  21.235   0.348   1.166
    1QTZ  Si12612638  20.966   0.402   0.265
    1QTZ  Si12612639  21.511   0.287   0.650
    1QTZ  Si12612640  21.164   0.035   0.660
    1QTZ  Si12612641  21.676   0.026   1.087
    1QTZ  Si12612642  21.409   0.040   0.105
    1QTZ  O126412643  21.198   0.054   2.413
    1QTZ  O126412644  21.748   0.006   1.533
    1QTZ  O126412645  21.446   3.421   2.064
    1QTZ  O126412646  20.999   0.389   2.009
    1QTZ  O126412647  21.602   0.411   2.476
    1QTZ  O126412648  21.345   0.368   1.566
    1QTZ  O126412649  21.334   0.350   2.556
    1QTZ  O126512650  21.085   0.311   1.598
    1QTZ  O126512651  21.623   0.255   2.059
    1QTZ  O126512652  21.113   0.118   2.157
    1QTZ  O126512653  21.703   0.057   1.258
    1QTZ  O126512654  21.442   0.038   1.773
    1QTZ  O126512655  21.131   0.309   2.380
    1QTZ  O126512656  20.852   0.255   1.483
    1QTZ  O126512657  21.389   0.181   2.031
    1QTZ  O126512658  20.986   0.140   1.917
    1QTZ  O126512659  21.589   0.166   2.565
    1QTZ  O126612660  21.270   0.121   1.552
    1QTZ  O126612661  21.509   0.056   1.476
    1QTZ  O126612662  20.945   0.105   2.388
    1QTZ  O126612663  21.223   0.011   1.929
    1QTZ  O126612664  20.860   0.332   1.767
    1QTZ  O126612665  21.461   0.255   2.311
    1QTZ  O126612666  21.195   0.306   1.332
    1QTZ  Si12612667  21.662   0.099   1.424
    1QTZ  Si12612668  21.095   0.152   2.325
    1QTZ  Si12612669  21.386   0.038   1.940
    1QTZ  Si12612670  20.899   0.281   1.930
    1QTZ  Si12612671  21.487   0.288   2.485
    1QTZ  Si12612672  21.221   0.275   1.503
    1QTZ  Si12612673  21.176   0.415   2.506
    1QTZ  Si12612674  20.922   0.351   1.605
    1QTZ  Si12612675  21.475   0.283   2.134
    1QTZ  Si12612676  21.080   0.038   2.008
    1QTZ  Si12612677  21.706   0.038   2.526
    1QTZ  Si12612678  21.399   0.024   1.602
    1QTZ  O126712679  21.211   0.505   1.107
    1QTZ  O126812680  21.765   0.559   0.211
    1QTZ  O126812681  21.508   0.430   0.559
    1QTZ  O126812682  21.076   0.889   0.673
    1QTZ  O126812683  21.627   0.868   1.039
    1QTZ  O126812684  21.307   0.913   0.025
    1QTZ  O126812685  21.388   0.804   1.114
    1QTZ  O126812686  21.117   0.852   0.201
    1QTZ  O126812687  21.674   0.759   0.662
    1QTZ  O126812688  21.202   0.582   0.823
    1QTZ  O126812689  21.435   0.505   0.279
    1QTZ  O126912690  21.149   0.753   1.057
    1QTZ  O126912691  20.864   0.801   0.177
    1QTZ  O126912692  21.452   0.684   0.526
    1QTZ  O126912693  21.064   0.640   0.580
    1QTZ  O126912694  21.552   0.617   1.024
    1QTZ  O126912695  21.293   0.661   0.115
    1QTZ  O126912696  21.561   0.600   0.035
    1QTZ  O126912697  20.977   0.561   0.992
    1QTZ  O126912698  21.273   0.503   0.532
    1QTZ  O126912699  20.949   0.866   0.433
    1QTZ  O127012700  21.455   0.785   0.818
    1QTZ  O127012701  21.033   0.724   0.003
    1QTZ  Si12712702  21.720   0.665   0.084
    1QTZ  Si12712703  21.140   0.601   0.985
    1QTZ  Si12712704  21.421   0.532   0.457
    1QTZ  Si12712705  20.983   0.786   0.582
    1QTZ  Si12712706  21.498   0.771   0.988
    1QTZ  Si12712707  21.190   0.786   0.064
    1QTZ  Si12712708  21.235   0.846   1.167
    1QTZ  Si12712709  20.966   0.900   0.265
    1QTZ  Si12712710  21.511   0.785   0.651
    1QTZ  Si12712711  21.164   0.532   0.660
    1QTZ  Si12712712  21.676   0.524   1.087
    1QTZ  Si12712713  21.409   0.537   0.105
    1QTZ  O127112714  21.198   0.551   2.413
    1QTZ  O127112715  21.748   0.504   1.534
    1QTZ  O127112716  21.443   0.435   2.065
    1QTZ  O127112717  21.000   0.887   2.010
    1QTZ  O127112718  21.602   0.909   2.476
    1QTZ  O127112719  21.344   0.865   1.567
    1QTZ  O127212720  21.335   0.848   2.556
    1QTZ  O127212721  21.085   0.809   1.598
    1QTZ  O127212722  21.624   0.750   2.059
    1QTZ  O127212723  21.112   0.616   2.157
    1QTZ  O127212724  21.702   0.555   1.258
    1QTZ  O127212725  21.441   0.536   1.773
    1QTZ  O127212726  21.131   0.807   2.380
    1QTZ  O127212727  20.851   0.753   1.484
    1QTZ  O127212728  21.389   0.679   2.031
    1QTZ  O127212729  20.983   0.638   1.918
    1QTZ  O127312730  21.590   0.664   2.565
    1QTZ  O127312731  21.269   0.619   1.552
    1QTZ  O127312732  21.508   0.555   1.476
    1QTZ  O127312733  20.945   0.603   2.389
    1QTZ  O127312734  21.222   0.510   1.928
    1QTZ  O127312735  20.859   0.830   1.768
    1QTZ  O127312736  21.462   0.753   2.311
    1QTZ  O127312737  21.194   0.805   1.333
    1QTZ  Si12712738  21.662   0.597   1.424
    1QTZ  Si12712739  21.095   0.650   2.325
    1QTZ  Si12712740  21.385   0.536   1.940
    1QTZ  Si12712741  20.898   0.780   1.931
    1QTZ  Si12712742  21.487   0.785   2.485
    1QTZ  Si12712743  21.220   0.773   1.504
    1QTZ  Si12712744  21.176   0.912   2.506
    1QTZ  Si12712745  20.922   0.849   1.605
    1QTZ  Si12712746  21.476   0.780   2.134
    1QTZ  Si12712747  21.079   0.536   2.008
    1QTZ  Si12712748  21.706   0.536   2.527
    1QTZ  Si12712749  21.398   0.522   1.602
    1QTZ  O127512750  21.211   1.002   1.107
    1QTZ  O127512751  21.765   1.057   0.211
    1QTZ  O127512752  21.507   0.928   0.559
    1QTZ  O127512753  21.078   1.386   0.672
    1QTZ  O127512754  21.627   1.366   1.038
    1QTZ  O127512755  21.307   1.411   0.025
    1QTZ  O127512756  21.389   1.301   1.114
    1QTZ  O127512757  21.117   1.350   0.202
    1QTZ  O127512758  21.673   1.256   0.661
    1QTZ  O127512759  21.202   1.079   0.823
    1QTZ  O127612760  21.435   1.002   0.279
    1QTZ  O127612761  21.149   1.251   1.057
    1QTZ  O127612762  20.864   1.299   0.177
    1QTZ  O127612763  21.451   1.181   0.525
    1QTZ  O127612764  21.063   1.138   0.581
    1QTZ  O127612765  21.552   1.115   1.024
    1QTZ  O127612766  21.293   1.159   0.115
    1QTZ  O127612767  21.561   1.098   0.035
    1QTZ  O127612768  20.977   1.059   0.992
    1QTZ  O127612769  21.273   1.000   0.532
    1QTZ  O127712770  20.950   1.364   0.433
    1QTZ  O127712771  21.454   1.282   0.817
    1QTZ  O127712772  21.034   1.222   0.003
    1QTZ  Si12712773  21.719   1.163   0.084
    1QTZ  Si12712774  21.140   1.099   0.985
    1QTZ  Si12712775  21.420   1.029   0.457
    1QTZ  Si12712776  20.983   1.284   0.582
    1QTZ  Si12712777  21.498   1.268   0.988
    1QTZ  Si12712778  21.191   1.283   0.064
    1QTZ  Si12712779  21.235   1.344   1.167
    1QTZ  Si12712780  20.967   1.397   0.265
    1QTZ  Si12712781  21.511   1.283   0.650
    1QTZ  Si12712782  21.164   1.029   0.660
    1QTZ  Si12712783  21.676   1.022   1.087
    1QTZ  Si12712784  21.409   1.035   0.105
    1QTZ  O127812785  21.198   1.049   2.413
    1QTZ  O127812786  21.748   1.001   1.534
    1QTZ  O127812787  21.446   0.932   2.065
    1QTZ  O127812788  20.999   1.385   2.009
    1QTZ  O127812789  21.602   1.407   2.476
    1QTZ  O127912790  21.345   1.363   1.566
    1QTZ  O127912791  21.334   1.346   2.556
    1QTZ  O127912792  21.086   1.307   1.598
    1QTZ  O127912793  21.623   1.251   2.060
    1QTZ  O127912794  21.113   1.114   2.157
    1QTZ  O127912795  21.702   1.053   1.258
    1QTZ  O127912796  21.442   1.034   1.773
    1QTZ  O127912797  21.131   1.305   2.380
    1QTZ  O127912798  20.852   1.251   1.483
    1QTZ  O127912799  21.389   1.176   2.032
    1QTZ  O128012800  20.986   1.136   1.917
    1QTZ  O128012801  21.589   1.162   2.565
    1QTZ  O128012802  21.270   1.117   1.552
    1QTZ  O128012803  21.508   1.051   1.476
    1QTZ  O128012804  20.945   1.100   2.388
    1QTZ  O128012805  21.224   1.006   1.929
    1QTZ  O128012806  20.860   1.327   1.767
    1QTZ  O128012807  21.461   1.251   2.311
    1QTZ  O128012808  21.195   1.302   1.332
    1QTZ  Si12812809  21.662   1.094   1.424
    1QTZ  Si12812810  21.095   1.147   2.325
    1QTZ  Si12812811  21.386   1.034   1.940
    1QTZ  Si12812812  20.899   1.276   1.930
    1QTZ  Si12812813  21.487   1.283   2.485
    1QTZ  Si12812814  21.221   1.271   1.503
    1QTZ  Si12812815  21.176   1.411   2.506
    1QTZ  Si12812816  20.923   1.347   1.605
    1QTZ  Si12812817  21.475   1.279   2.134
    1QTZ  Si12812818  21.080   1.033   2.008
    1QTZ  Si12812819  21.705   1.034   2.527
    1QTZ  Si12812820  21.398   1.019   1.603
    1QTZ  O128212821  21.212   1.500   1.106
    1QTZ  O128212822  21.765   1.555   0.211
    1QTZ  O128212823  21.507   1.425   0.559
    1QTZ  O128212824  21.076   1.884   0.673
    1QTZ  O128212825  21.627   1.863   1.038
    1QTZ  O128212826  21.307   1.908   0.025
    1QTZ  O128212827  21.388   1.800   1.114
    1QTZ  O128212828  21.117   1.848   0.201
    1QTZ  O128212829  21.675   1.755   0.662
    1QTZ  O128312830  21.203   1.578   0.822
    1QTZ  O128312831  21.435   1.500   0.279
    1QTZ  O128312832  21.149   1.749   1.057
    1QTZ  O128312833  20.864   1.797   0.177
    1QTZ  O128312834  21.453   1.679   0.525
    1QTZ  O128312835  21.063   1.635   0.580
    1QTZ  O128312836  21.552   1.612   1.024
    1QTZ  O128312837  21.294   1.656   0.115
    1QTZ  O128312838  21.562   1.595   0.034
    1QTZ  O128312839  20.978   1.556   0.992
    1QTZ  O128412840  21.273   1.499   0.531
    1QTZ  O128412841  20.949   1.862   0.432
    1QTZ  O128412842  21.455   1.780   0.818
    1QTZ  O128412843  21.034   1.719   0.003
    1QTZ  Si12812844  21.720   1.660   0.084
    1QTZ  Si12812845  21.141   1.597   0.985
    1QTZ  Si12812846  21.421   1.528   0.457
    1QTZ  Si12812847  20.982   1.781   0.582
    1QTZ  Si12812848  21.498   1.766   0.988
    1QTZ  Si12812849  21.190   1.781   0.063
    1QTZ  Si12812850  21.235   1.842   1.167
    1QTZ  Si12812851  20.967   1.895   0.265
    1QTZ  Si12812852  21.512   1.781   0.651
    1QTZ  Si12812853  21.164   1.528   0.660
    1QTZ  Si12812854  21.676   1.519   1.087
    1QTZ  Si12812855  21.409   1.533   0.105
    1QTZ  O128512856  21.198   1.547   2.413
    1QTZ  O128512857  21.748   1.499   1.534
    1QTZ  O128512858  21.442   1.430   2.065
    1QTZ  O128512859  21.000   1.883   2.009
    1QTZ  O128612860  21.603   1.905   2.475
    1QTZ  O128612861  21.344   1.861   1.567
    1QTZ  O128612862  21.335   1.843   2.555
    1QTZ  O128612863  21.085   1.805   1.598
    1QTZ  O128612864  21.624   1.746   2.058
    1QTZ  O128612865  21.112   1.611   2.157
    1QTZ  O128612866  21.702   1.550   1.258
    1QTZ  O128612867  21.441   1.531   1.773
    1QTZ  O128612868  21.131   1.802   2.379
    1QTZ  O128612869  20.851   1.748   1.484
    1QTZ  O128712870  21.389   1.674   2.031
    1QTZ  O128712871  20.983   1.634   1.918
    1QTZ  O128712872  21.590   1.659   2.565
    1QTZ  O128712873  21.269   1.614   1.552
    1QTZ  O128712874  21.508   1.551   1.476
    1QTZ  O128712875  20.945   1.598   2.389
    1QTZ  O128712876  21.221   1.505   1.928
    1QTZ  O128712877  20.859   1.826   1.768
    1QTZ  O128712878  21.462   1.749   2.311
    1QTZ  O128712879  21.194   1.800   1.333
    1QTZ  Si12812880  21.662   1.592   1.424
    1QTZ  Si12812881  21.095   1.645   2.325
    1QTZ  Si12812882  21.384   1.532   1.940
    1QTZ  Si12812883  20.898   1.776   1.930
    1QTZ  Si12812884  21.487   1.781   2.485
    1QTZ  Si12812885  21.220   1.768   1.503
    1QTZ  Si12812886  21.176   1.908   2.505
    1QTZ  Si12812887  20.922   1.845   1.605
    1QTZ  Si12812888  21.476   1.776   2.133
    1QTZ  Si12812889  21.078   1.532   2.008
    1QTZ  Si12812890  21.706   1.531   2.526
    1QTZ  Si12812891  21.398   1.517   1.602
    1QTZ  O128912892  21.211   1.998   1.107
    1QTZ  O128912893  21.765   2.052   0.210
    1QTZ  O128912894  21.508   1.923   0.559
    1QTZ  O128912895  21.079   2.382   0.672
    1QTZ  O128912896  21.627   2.361   1.037
    1QTZ  O128912897  21.307   2.406   0.025
    1QTZ  O128912898  21.389   2.297   1.113
    1QTZ  O128912899  21.117   2.346   0.201
    1QTZ  O129012900  21.673   2.251   0.661
    1QTZ  O129012901  21.202   2.075   0.822
    1QTZ  O129012902  21.435   1.997   0.279
    1QTZ  O129012903  21.149   2.246   1.056
    1QTZ  O129012904  20.864   2.295   0.177
    1QTZ  O129012905  21.451   2.177   0.525
    1QTZ  O129012906  21.064   2.133   0.580
    1QTZ  O129012907  21.552   2.110   1.023
    1QTZ  O129012908  21.294   2.154   0.114
    1QTZ  O129012909  21.562   2.093   0.034
    1QTZ  O129112910  20.977   2.054   0.992
    1QTZ  O129112911  21.273   1.995   0.531
    1QTZ  O129112912  20.950   2.359   0.432
    1QTZ  O129112913  21.454   2.278   0.817
    1QTZ  O129112914  21.034   2.217   0.003
    1QTZ  Si12912915  21.720   2.158   0.084
    1QTZ  Si12912916  21.140   2.094   0.985
    1QTZ  Si12912917  21.420   2.025   0.456
    1QTZ  Si12912918  20.984   2.280   0.582
    1QTZ  Si12912919  21.499   2.264   0.987
    1QTZ  Si12912920  21.191   2.279   0.063
    1QTZ  Si12912921  21.235   2.339   1.166
    1QTZ  Si12912922  20.967   2.393   0.264
    1QTZ  Si12912923  21.510   2.278   0.650
    1QTZ  Si12912924  21.164   2.025   0.660
    1QTZ  Si12912925  21.676   2.017   1.087
    1QTZ  Si12912926  21.409   2.030   0.105
    1QTZ  O129212927  21.198   2.045   2.413
    1QTZ  O129212928  21.748   1.997   1.533
    1QTZ  O129212929  21.446   1.928   2.064
    1QTZ  O129312930  20.999   2.380   2.009
    1QTZ  O129312931  21.603   2.403   2.475
    1QTZ  O129312932  21.345   2.359   1.566
    1QTZ  O129312933  21.334   2.341   2.556
    1QTZ  O129312934  21.086   2.303   1.597
    1QTZ  O129312935  21.624   2.246   2.059
    1QTZ  O129312936  21.113   2.109   2.157
    1QTZ  O129312937  21.703   2.049   1.257
    1QTZ  O129312938  21.442   2.029   1.772
    1QTZ  O129312939  21.131   2.300   2.379
    1QTZ  O129412940  20.852   2.246   1.483
    1QTZ  O129412941  21.389   2.172   2.031
    1QTZ  O129412942  20.986   2.131   1.917
    1QTZ  O129412943  21.589   2.157   2.565
    1QTZ  O129412944  21.270   2.112   1.551
    1QTZ  O129412945  21.509   2.047   1.476
    1QTZ  O129412946  20.945   2.096   2.388
    1QTZ  O129412947  21.224   2.002   1.928
    1QTZ  O129412948  20.860   2.323   1.767
    1QTZ  O129412949  21.461   2.247   2.311
    1QTZ  O129512950  21.195   2.298   1.332
    1QTZ  Si12912951  21.662   2.090   1.423
    1QTZ  Si12912952  21.096   2.143   2.325
    1QTZ  Si12912953  21.386   2.029   1.939
    1QTZ  Si12912954  20.899   2.272   1.929
    1QTZ  Si12912955  21.487   2.279   2.485
    1QTZ  Si12912956  21.221   2.266   1.503
    1QTZ  Si12912957  21.176   2.406   2.506
    1QTZ  Si12912958  20.923   2.343   1.604
    1QTZ  Si12912959  21.475   2.274   2.133
    1QTZ  Si12912960  21.080   2.029   2.008
    1QTZ  Si12912961  21.706   2.029   2.526
    1QTZ  Si12912962  21.398   2.015   1.602
    1QTZ  O129612963  21.212   2.496   1.106
    1QTZ  O129612964  21.765   2.550   0.210
    1QTZ  O129612965  21.507   2.421   0.558
    1QTZ  O129612966  21.076   2.880   0.672
    1QTZ  O129612967  21.628   2.859   1.038
    1QTZ  O129612968  21.307   2.904   0.025
    1QTZ  O129612969  21.388   2.795   1.113
    1QTZ  O129712970  21.117   2.843   0.201
    1QTZ  O129712971  21.675   2.750   0.662
    1QTZ  O129712972  21.203   2.574   0.822
    1QTZ  O129712973  21.436   2.496   0.278
    1QTZ  O129712974  21.149   2.744   1.056
    1QTZ  O129712975  20.864   2.792   0.176
    1QTZ  O129712976  21.454   2.675   0.525
    1QTZ  O129712977  21.063   2.631   0.580
    1QTZ  O129712978  21.552   2.608   1.024
    1QTZ  O129712979  21.294   2.652   0.114
    1QTZ  O129812980  21.562   2.591   0.034
    1QTZ  O129812981  20.978   2.552   0.992
    1QTZ  O129812982  21.273   2.495   0.530
    1QTZ  O129812983  20.949   2.857   0.432
    1QTZ  O129812984  21.455   2.776   0.817
    1QTZ  O129812985  21.034   2.715   0.003
    1QTZ  Si12912986  21.720   2.656   0.084
    1QTZ  Si12912987  21.141   2.592   0.984
    1QTZ  Si12912988  21.421   2.523   0.456
    1QTZ  Si12912989  20.982   2.777   0.581
    1QTZ  Si12912990  21.499   2.762   0.988
    1QTZ  Si12912991  21.191   2.776   0.063
    1QTZ  Si12912992  21.235   2.837   1.166
    1QTZ  Si12912993  20.967   2.891   0.264
    1QTZ  Si12912994  21.512   2.776   0.650
    1QTZ  Si12912995  21.164   2.524   0.659
    1QTZ  Si12912996  21.676   2.515   1.087
    1QTZ  Si12912997  21.409   2.528   0.104
    1QTZ  O129912998  21.198   2.543   2.413
    1QTZ  O129912999  21.748   2.495   1.533
    1QTZ  O130013000  21.444   2.426   2.065
    1QTZ  O130013001  21.000   2.878   2.009
    1QTZ  O130013002  21.603   2.900   2.475
    1QTZ  O130013003  21.345   2.857   1.566
    1QTZ  O130013004  21.335   2.839   2.555
    1QTZ  O130013005  21.085   2.800   1.597
    1QTZ  O130013006  21.624   2.742   2.058
    1QTZ  O130013007  21.112   2.607   2.157
    1QTZ  O130013008  21.702   2.546   1.257
    1QTZ  O130013009  21.442   2.527   1.772
    1QTZ  O130113010  21.131   2.798   2.379
    1QTZ  O130113011  20.851   2.744   1.483
    1QTZ  O130113012  21.389   2.670   2.031
    1QTZ  O130113013  20.984   2.629   1.917
    1QTZ  O130113014  21.590   2.655   2.564
    1QTZ  O130113015  21.269   2.610   1.552
    1QTZ  O130113016  21.508   2.546   1.476
    1QTZ  O130113017  20.945   2.594   2.388
    1QTZ  O130113018  21.222   2.500   1.928
    1QTZ  O130113019  20.860   2.821   1.767
    1QTZ  O130213020  21.462   2.744   2.310
    1QTZ  O130213021  21.194   2.795   1.332
    1QTZ  Si13013022  21.662   2.588   1.423
    1QTZ  Si13013023  21.095   2.641   2.325
    1QTZ  Si13013024  21.385   2.527   1.939
    1QTZ  Si13013025  20.899   2.771   1.930
    1QTZ  Si13013026  21.487   2.776   2.484
    1QTZ  Si13013027  21.221   2.764   1.503
    1QTZ  Si13013028  21.176   2.904   2.505
    1QTZ  Si13013029  20.922   2.840   1.605
    1QTZ  Si13013030  21.476   2.771   2.133
    1QTZ  Si13013031  21.079   2.527   2.007
    1QTZ  Si13013032  21.706   2.527   2.526
    1QTZ  Si13013033  21.398   2.513   1.602
    1QTZ  O130313034  21.211   2.994   1.106
    1QTZ  O130313035  21.765   3.048   0.210
    1QTZ  O130313036  21.508   2.919   0.559
    1QTZ  O130313037  21.078   3.377   0.672
    1QTZ  O130313038  21.627   3.357   1.038
    1QTZ  O130313039  21.307   3.402   0.025
    1QTZ  O130413040  21.389   3.292   1.114
    1QTZ  O130413041  21.117   3.341   0.201
    1QTZ  O130413042  21.673   3.247   0.661
    1QTZ  O130413043  21.202   3.071   0.822
    1QTZ  O130413044  21.435   2.993   0.279
    1QTZ  O130413045  21.149   3.242   1.056
    1QTZ  O130413046  20.864   3.290   0.176
    1QTZ  O130413047  21.451   3.172   0.525
    1QTZ  O130413048  21.064   3.129   0.580
    1QTZ  O130413049  21.552   3.106   1.023
    1QTZ  O130513050  21.294   3.150   0.114
    1QTZ  O130513051  21.562   3.089   0.034
    1QTZ  O130513052  20.977   3.050   0.992
    1QTZ  O130513053  21.273   2.991   0.531
    1QTZ  O130513054  20.950   3.355   0.432
    1QTZ  O130513055  21.455   3.274   0.817
    1QTZ  O130513056  21.034   3.213   0.002
    1QTZ  Si13013057  21.720   3.154   0.084
    1QTZ  Si13013058  21.140   3.090   0.985
    1QTZ  Si13013059  21.421   3.020   0.456
    1QTZ  Si13013060  20.983   3.275   0.582
    1QTZ  Si13013061  21.499   3.259   0.988
    1QTZ  Si13013062  21.191   3.274   0.063
    1QTZ  Si13013063  21.235   3.335   1.166
    1QTZ  Si13013064  20.967   3.388   0.264
    1QTZ  Si13013065  21.511   3.274   0.650
    1QTZ  Si13013066  21.164   3.020   0.660
    1QTZ  Si13013067  21.677   3.013   1.086
    1QTZ  Si13013068  21.409   3.026   0.105
    1QTZ  O130613069  21.198   3.040   2.413
    1QTZ  O130713070  21.748   2.992   1.533
    1QTZ  O130713071  21.445   2.923   2.064
    1QTZ  O130713072  21.000   3.376   2.009
    1QTZ  O130713073  21.602   3.398   2.475
    1QTZ  O130713074  21.345   3.354   1.567
    1QTZ  O130713075  21.335   3.336   2.556
    1QTZ  O130713076  21.085   3.298   1.597
    1QTZ  O130713077  21.624   3.240   2.059
    1QTZ  O130713078  21.113   3.105   2.157
    1QTZ  O130713079  21.703   3.044   1.257
    1QTZ  O130813080  21.442   3.025   1.772
    1QTZ  O130813081  21.131   3.296   2.379
    1QTZ  O130813082  20.852   3.242   1.483
    1QTZ  O130813083  21.389   3.167   2.031
    1QTZ  O130813084  20.985   3.127   1.917
    1QTZ  O130813085  21.590   3.152   2.564
    1QTZ  O130813086  21.270   3.107   1.551
    1QTZ  O130813087  21.509   3.043   1.476
    1QTZ  O130813088  20.945   3.091   2.388
    1QTZ  O130813089  21.223   2.998   1.928
    1QTZ  O130913090  20.860   3.319   1.767
    1QTZ  O130913091  21.462   3.242   2.311
    1QTZ  O130913092  21.195   3.293   1.332
    1QTZ  Si13013093  21.662   3.085   1.423
    1QTZ  Si13013094  21.095   3.139   2.324
    1QTZ  Si13013095  21.386   3.025   1.939
    1QTZ  Si13013096  20.899   3.268   1.930
    1QTZ  Si13013097  21.487   3.274   2.485
    1QTZ  Si13013098  21.221   3.262   1.503
    1QTZ  Si13013099  21.176   3.401   2.506
    1QTZ  Si13113100  20.922   3.338   1.605
    1QTZ  Si13113101  21.476   3.269   2.133
    1QTZ  Si13113102  21.080   3.025   2.007
    1QTZ  Si13113103  21.706   3.025   2.526
    1QTZ  Si13113104  21.398   3.010   1.602
    1QTZ  O131013105  22.045   0.007   1.106
    1QTZ  O131013106  22.599   0.061   0.210
    1QTZ  O131013107  22.342   3.417   0.558
    1QTZ  O131013108  21.912   0.391   0.672
    1QTZ  O131013109  22.461   0.370   1.038
    1QTZ  O131113110  22.141   0.416   0.025
    1QTZ  O131113111  22.223   0.306   1.114
    1QTZ  O131113112  21.951   0.355   0.201
    1QTZ  O131113113  22.508   0.261   0.661
    1QTZ  O131113114  22.037   0.084   0.822
    1QTZ  O131113115  22.269   0.007   0.279
    1QTZ  O131113116  21.983   0.255   1.057
    1QTZ  O131113117  21.698   0.304   0.177
    1QTZ  O131113118  22.286   0.186   0.525
    1QTZ  O131113119  21.898   0.142   0.580
    1QTZ  O131213120  22.386   0.119   1.023
    1QTZ  O131213121  22.128   0.163   0.114
    1QTZ  O131213122  22.395   0.102   0.034
    1QTZ  O131213123  21.812   0.063   0.992
    1QTZ  O131213124  22.107   0.005   0.531
    1QTZ  O131213125  21.784   0.368   0.433
    1QTZ  O131213126  22.289   0.287   0.817
    1QTZ  O131213127  21.868   0.227   0.003
    1QTZ  Si13113128  22.554   0.167   0.084
    1QTZ  Si13113129  21.975   0.103   0.985
    1QTZ  Si13113130  22.255   0.034   0.456
    1QTZ  Si13113131  21.817   0.288   0.582
    1QTZ  Si13113132  22.333   0.273   0.988
    1QTZ  Si13113133  22.025   0.288   0.063
    1QTZ  Si13113134  22.069   0.348   1.166
    1QTZ  Si13113135  21.801   0.402   0.265
    1QTZ  Si13113136  22.345   0.288   0.650
    1QTZ  Si13113137  21.998   0.034   0.660
    1QTZ  Si13113138  22.510   0.026   1.086
    1QTZ  Si13113139  22.243   0.040   0.105
    1QTZ  O131413140  22.032   0.054   2.413
    1QTZ  O131413141  22.582   0.006   1.533
    1QTZ  O131413142  22.278   3.421   2.064
    1QTZ  O131413143  21.834   0.390   2.010
    1QTZ  O131413144  22.436   0.412   2.475
    1QTZ  O131413145  22.179   0.368   1.567
    1QTZ  O131413146  22.169   0.350   2.556
    1QTZ  O131413147  21.919   0.311   1.598
    1QTZ  O131413148  22.458   0.253   2.058
    1QTZ  O131413149  21.947   0.118   2.157
    1QTZ  O131513150  22.537   0.057   1.257
    1QTZ  O131513151  22.276   0.038   1.772
    1QTZ  O131513152  21.965   0.309   2.379
    1QTZ  O131513153  21.685   0.255   1.484
    1QTZ  O131513154  22.223   0.181   2.031
    1QTZ  O131513155  21.818   0.141   1.918
    1QTZ  O131513156  22.424   0.166   2.564
    1QTZ  O131513157  22.104   0.121   1.551
    1QTZ  O131513158  22.343   0.057   1.476
    1QTZ  O131513159  21.779   0.105   2.388
    1QTZ  O131613160  22.057   0.012   1.928
    1QTZ  O131613161  21.694   0.333   1.768
    1QTZ  O131613162  22.296   0.255   2.311
    1QTZ  O131613163  22.028   0.307   1.332
    1QTZ  Si13113164  22.496   0.099   1.423
    1QTZ  Si13113165  21.929   0.152   2.325
    1QTZ  Si13113166  22.219   0.039   1.939
    1QTZ  Si13113167  21.732   0.282   1.930
    1QTZ  Si13113168  22.321   0.288   2.485
    1QTZ  Si13113169  22.055   0.275   1.503
    1QTZ  Si13113170  22.011   0.415   2.506
    1QTZ  Si13113171  21.756   0.352   1.605
    1QTZ  Si13113172  22.310   0.283   2.133
    1QTZ  Si13113173  21.913   0.039   2.008
    1QTZ  Si13113174  22.540   0.038   2.526
    1QTZ  Si13113175  22.233   0.024   1.602
    1QTZ  O131713176  22.046   0.505   1.106
    1QTZ  O131713177  22.599   0.559   0.210
    1QTZ  O131713178  22.341   0.430   0.559
    1QTZ  O131713179  21.912   0.889   0.673
    1QTZ  O131813180  22.461   0.868   1.038
    1QTZ  O131813181  22.141   0.913   0.026
    1QTZ  O131813182  22.223   0.804   1.114
    1QTZ  O131813183  21.951   0.853   0.202
    1QTZ  O131813184  22.508   0.758   0.661
    1QTZ  O131813185  22.037   0.582   0.822
    1QTZ  O131813186  22.269   0.505   0.279
    1QTZ  O131813187  21.983   0.753   1.057
    1QTZ  O131813188  21.698   0.802   0.177
    1QTZ  O131813189  22.286   0.684   0.525
    1QTZ  O131913190  21.897   0.640   0.581
    1QTZ  O131913191  22.386   0.617   1.023
    1QTZ  O131913192  22.127   0.661   0.114
    1QTZ  O131913193  22.395   0.600   0.034
    1QTZ  O131913194  21.811   0.561   0.992
    1QTZ  O131913195  22.107   0.503   0.531
    1QTZ  O131913196  21.784   0.866   0.433
    1QTZ  O131913197  22.289   0.785   0.817
    1QTZ  O131913198  21.867   0.725   0.003
    1QTZ  Si13113199  22.554   0.665   0.084
    1QTZ  Si13213200  21.974   0.601   0.985
    1QTZ  Si13213201  22.255   0.532   0.456
    1QTZ  Si13213202  21.817   0.786   0.582
    1QTZ  Si13213203  22.332   0.771   0.988
    1QTZ  Si13213204  22.024   0.786   0.064
    1QTZ  Si13213205  22.069   0.846   1.167
    1QTZ  Si13213206  21.801   0.900   0.265
    1QTZ  Si13213207  22.345   0.785   0.650
    1QTZ  Si13213208  21.998   0.532   0.660
    1QTZ  Si13213209  22.510   0.524   1.087
    1QTZ  Si13213210  22.243   0.538   0.105
    1QTZ  O132113211  22.032   0.552   2.413
    1QTZ  O132113212  22.582   0.504   1.533
    1QTZ  O132113213  22.280   0.434   2.064
    1QTZ  O132113214  21.833   0.887   2.010
    1QTZ  O132113215  22.436   0.909   2.476
    1QTZ  O132113216  22.179   0.866   1.566
    1QTZ  O132113217  22.168   0.848   2.556
    1QTZ  O132113218  21.920   0.809   1.598
    1QTZ  O132113219  22.457   0.753   2.060
    1QTZ  O132213220  21.947   0.616   2.157
    1QTZ  O132213221  22.536   0.556   1.257
    1QTZ  O132213222  22.276   0.536   1.773
    1QTZ  O132213223  21.965   0.807   2.380
    1QTZ  O132213224  21.686   0.753   1.484
    1QTZ  O132213225  22.223   0.679   2.031
    1QTZ  O132213226  21.820   0.638   1.918
    1QTZ  O132213227  22.423   0.664   2.565
    1QTZ  O132213228  22.104   0.619   1.552
    1QTZ  O132213229  22.343   0.554   1.476
    1QTZ  O132313230  21.779   0.602   2.389
    1QTZ  O132313231  22.058   0.508   1.929
    1QTZ  O132313232  21.694   0.829   1.768
    1QTZ  O132313233  22.295   0.753   2.311
    1QTZ  O132313234  22.029   0.804   1.332
    1QTZ  Si13213235  22.496   0.597   1.423
    1QTZ  Si13213236  21.930   0.650   2.325
    1QTZ  Si13213237  22.220   0.536   1.940
    1QTZ  Si13213238  21.733   0.779   1.930
    1QTZ  Si13213239  22.321   0.786   2.485
    1QTZ  Si13213240  22.055   0.773   1.503
    1QTZ  Si13213241  22.010   0.913   2.506
    1QTZ  Si13213242  21.757   0.849   1.605
    1QTZ  Si13213243  22.309   0.781   2.134
    1QTZ  Si13213244  21.914   0.536   2.008
    1QTZ  Si13213245  22.540   0.536   2.526
    1QTZ  Si13213246  22.233   0.522   1.602
    1QTZ  O132413247  22.046   1.003   1.107
    1QTZ  O132413248  22.599   1.057   0.210
    1QTZ  O132413249  22.342   0.928   0.559
    1QTZ  O132513250  21.911   1.386   0.673
    1QTZ  O132513251  22.461   1.366   1.038
    1QTZ  O132513252  22.141   1.411   0.025
    1QTZ  O132513253  22.222   1.302   1.114
    1QTZ  O132513254  21.951   1.350   0.202
    1QTZ  O132513255  22.508   1.257   0.662
    1QTZ  O132513256  22.037   1.080   0.823
    1QTZ  O132513257  22.269   1.003   0.279
    1QTZ  O132513258  21.983   1.251   1.057
    1QTZ  O132513259  21.698   1.299   0.177
    1QTZ  O132613260  22.287   1.182   0.526
    1QTZ  O132613261  21.897   1.138   0.580
    1QTZ  O132613262  22.386   1.115   1.024
    1QTZ  O132613263  22.128   1.159   0.115
    1QTZ  O132613264  22.396   1.098   0.034
    1QTZ  O132613265  21.812   1.058   0.993
    1QTZ  O132613266  22.107   1.002   0.531
    1QTZ  O132613267  21.783   1.364   0.433
    1QTZ  O132613268  22.289   1.283   0.818
    1QTZ  O132613269  21.867   1.222   0.003
    1QTZ  Si13213270  22.554   1.163   0.084
    1QTZ  Si13213271  21.974   1.099   0.985
    1QTZ  Si13213272  22.255   1.030   0.457
    1QTZ  Si13213273  21.817   1.284   0.582
    1QTZ  Si13213274  22.332   1.269   0.988
    1QTZ  Si13213275  22.024   1.283   0.064
    1QTZ  Si13213276  22.069   1.344   1.167
    1QTZ  Si13213277  21.801   1.397   0.265
    1QTZ  Si13213278  22.345   1.283   0.651
    1QTZ  Si13213279  21.998   1.030   0.660
    1QTZ  Si13213280  22.510   1.022   1.087
    1QTZ  Si13213281  22.243   1.035   0.105
    1QTZ  O132813282  22.032   1.049   2.413
    1QTZ  O132813283  22.582   1.002   1.534
    1QTZ  O132813284  22.277   0.933   2.065
    1QTZ  O132813285  21.834   1.385   2.010
    1QTZ  O132813286  22.437   1.407   2.476
    1QTZ  O132813287  22.178   1.363   1.567
    1QTZ  O132813288  22.169   1.346   2.556
    1QTZ  O132813289  21.919   1.307   1.598
    1QTZ  O132913290  22.458   1.248   2.058
    1QTZ  O132913291  21.946   1.114   2.158
    1QTZ  O132913292  22.536   1.052   1.258
    1QTZ  O132913293  22.275   1.034   1.773
    1QTZ  O132913294  21.965   1.305   2.380
    1QTZ  O132913295  21.685   1.251   1.484
    1QTZ  O132913296  22.223   1.177   2.031
    1QTZ  O132913297  21.817   1.136   1.918
    1QTZ  O132913298  22.424   1.161   2.565
    1QTZ  O132913299  22.103   1.117   1.552
    1QTZ  O133013300  22.342   1.053   1.476
    1QTZ  O133013301  21.779   1.101   2.389
    1QTZ  O133013302  22.055   1.008   1.928
    1QTZ  O133013303  21.693   1.329   1.768
    1QTZ  O133013304  22.296   1.251   2.311
    1QTZ  O133013305  22.028   1.302   1.333
    1QTZ  Si13313306  22.496   1.094   1.423
    1QTZ  Si13313307  21.929   1.148   2.325
    1QTZ  Si13313308  22.218   1.034   1.940
    1QTZ  Si13313309  21.732   1.278   1.931
    1QTZ  Si13313310  22.321   1.283   2.485
    1QTZ  Si13313311  22.054   1.271   1.504
    1QTZ  Si13313312  22.011   1.411   2.506
    1QTZ  Si13313313  21.756   1.347   1.606
    1QTZ  Si13313314  22.310   1.278   2.133
    1QTZ  Si13313315  21.912   1.034   2.008
    1QTZ  Si13313316  22.540   1.034   2.526
    1QTZ  Si13313317  22.232   1.020   1.602
    1QTZ  O133113318  22.045   1.500   1.107
    1QTZ  O133113319  22.599   1.555   0.211
    1QTZ  O133213320  22.341   1.426   0.559
    1QTZ  O133213321  21.913   1.884   0.672
    1QTZ  O133213322  22.461   1.863   1.037
    1QTZ  O133213323  22.141   1.909   0.025
    1QTZ  O133213324  22.223   1.799   1.114
    1QTZ  O133213325  21.951   1.848   0.201
    1QTZ  O133213326  22.507   1.753   0.661
    1QTZ  O133213327  22.037   1.577   0.823
    1QTZ  O133213328  22.269   1.500   0.279
    1QTZ  O133213329  21.983   1.749   1.057
    1QTZ  O133313330  21.698   1.797   0.177
    1QTZ  O133313331  22.285   1.679   0.525
    1QTZ  O133313332  21.898   1.635   0.581
    1QTZ  O133313333  22.386   1.612   1.023
    1QTZ  O133313334  22.128   1.657   0.115
    1QTZ  O133313335  22.396   1.595   0.034
    1QTZ  O133313336  21.811   1.557   0.992
    1QTZ  O133313337  22.107   1.498   0.532
    1QTZ  O133313338  21.784   1.862   0.433
    1QTZ  O133313339  22.289   1.780   0.817
    1QTZ  O133413340  21.868   1.720   0.003
    1QTZ  Si13313341  22.554   1.660   0.084
    1QTZ  Si13313342  21.974   1.597   0.985
    1QTZ  Si13313343  22.254   1.527   0.457
    1QTZ  Si13313344  21.818   1.782   0.582
    1QTZ  Si13313345  22.333   1.766   0.987
    1QTZ  Si13313346  22.025   1.781   0.064
    1QTZ  Si13313347  22.069   1.842   1.166
    1QTZ  Si13313348  21.801   1.895   0.265
    1QTZ  Si13313349  22.344   1.781   0.650
    1QTZ  Si13313350  21.998   1.527   0.660
    1QTZ  Si13313351  22.510   1.520   1.087
    1QTZ  Si13313352  22.243   1.533   0.105
    1QTZ  O133513353  22.033   1.547   2.413
    1QTZ  O133513354  22.582   1.499   1.533
    1QTZ  O133513355  22.281   1.430   2.064
    1QTZ  O133513356  21.833   1.883   2.009
    1QTZ  O133513357  22.437   1.905   2.476
    1QTZ  O133513358  22.179   1.861   1.566
    1QTZ  O133513359  22.169   1.844   2.556
    1QTZ  O133613360  21.920   1.805   1.598
    1QTZ  O133613361  22.458   1.749   2.060
    1QTZ  O133613362  21.947   1.612   2.157
    1QTZ  O133613363  22.537   1.551   1.258
    1QTZ  O133613364  22.276   1.532   1.773
    1QTZ  O133613365  21.965   1.803   2.380
    1QTZ  O133613366  21.686   1.749   1.483
    1QTZ  O133613367  22.223   1.674   2.031
    1QTZ  O133613368  21.820   1.634   1.917
    1QTZ  O133613369  22.423   1.659   2.565
    1QTZ  O133713370  22.104   1.614   1.552
    1QTZ  O133713371  22.343   1.549   1.476
    1QTZ  O133713372  21.779   1.598   2.388
    1QTZ  O133713373  22.058   1.504   1.929
    1QTZ  O133713374  21.695   1.825   1.767
    1QTZ  O133713375  22.295   1.749   2.311
    1QTZ  O133713376  22.029   1.800   1.332
    1QTZ  Si13313377  22.496   1.592   1.424
    1QTZ  Si13313378  21.930   1.645   2.325
    1QTZ  Si13313379  22.221   1.532   1.940
    1QTZ  Si13313380  21.733   1.775   1.930
    1QTZ  Si13313381  22.321   1.781   2.485
    1QTZ  Si13313382  22.055   1.768   1.503
    1QTZ  Si13313383  22.010   1.909   2.506
    1QTZ  Si13313384  21.757   1.845   1.605
    1QTZ  Si13313385  22.309   1.777   2.134
    1QTZ  Si13313386  21.915   1.532   2.008
    1QTZ  Si13313387  22.540   1.532   2.527
    1QTZ  Si13313388  22.232   1.517   1.602
    1QTZ  O133813389  22.046   1.998   1.106
    1QTZ  O133913390  22.599   2.052   0.210
    1QTZ  O133913391  22.342   1.923   0.559
    1QTZ  O133913392  21.910   2.382   0.672
    1QTZ  O133913393  22.462   2.361   1.038
    1QTZ  O133913394  22.141   2.406   0.025
    1QTZ  O133913395  22.223   2.297   1.114
    1QTZ  O133913396  21.951   2.345   0.201
    1QTZ  O133913397  22.509   2.253   0.662
    1QTZ  O133913398  22.037   2.076   0.822
    1QTZ  O133913399  22.270   1.998   0.279
    1QTZ  O134013400  21.983   2.247   1.056
    1QTZ  O134013401  21.698   2.295   0.177
    1QTZ  O134013402  22.288   2.177   0.525
    1QTZ  O134013403  21.897   2.133   0.580
    1QTZ  O134013404  22.386   2.110   1.024
    1QTZ  O134013405  22.128   2.154   0.114
    1QTZ  O134013406  22.396   2.093   0.034
    1QTZ  O134013407  21.812   2.054   0.992
    1QTZ  O134013408  22.108   1.998   0.530
    1QTZ  O134013409  21.783   2.359   0.432
    1QTZ  O134113410  22.289   2.278   0.817
    1QTZ  O134113411  21.868   2.217   0.003
    1QTZ  Si13413412  22.554   2.158   0.084
    1QTZ  Si13413413  21.975   2.094   0.985
    1QTZ  Si13413414  22.256   2.026   0.456
    1QTZ  Si13413415  21.816   2.279   0.582
    1QTZ  Si13413416  22.333   2.264   0.988
    1QTZ  Si13413417  22.025   2.279   0.063
    1QTZ  Si13413418  22.069   2.339   1.166
    1QTZ  Si13413419  21.801   2.393   0.264
    1QTZ  Si13413420  22.346   2.279   0.650
    1QTZ  Si13413421  21.999   2.026   0.659
    1QTZ  Si13413422  22.510   2.017   1.087
    1QTZ  Si13413423  22.244   2.031   0.105
    1QTZ  O134213424  22.032   2.045   2.413
    1QTZ  O134213425  22.582   1.997   1.534
    1QTZ  O134213426  22.277   1.928   2.065
    1QTZ  O134213427  21.834   2.381   2.009
    1QTZ  O134213428  22.437   2.403   2.475
    1QTZ  O134213429  22.179   2.359   1.566
    1QTZ  O134313430  22.169   2.341   2.555
    1QTZ  O134313431  21.919   2.303   1.598
    1QTZ  O134313432  22.458   2.244   2.058
    1QTZ  O134313433  21.946   2.109   2.157
    1QTZ  O134313434  22.537   2.048   1.257
    1QTZ  O134313435  22.276   2.029   1.773
    1QTZ  O134313436  21.965   2.300   2.379
    1QTZ  O134313437  21.685   2.246   1.484
    1QTZ  O134313438  22.223   2.172   2.031
    1QTZ  O134313439  21.818   2.132   1.918
    1QTZ  O134413440  22.424   2.157   2.564
    1QTZ  O134413441  22.104   2.112   1.552
    1QTZ  O134413442  22.343   2.048   1.476
    1QTZ  O134413443  21.779   2.096   2.389
    1QTZ  O134413444  22.056   2.003   1.928
    1QTZ  O134413445  21.694   2.324   1.768
    1QTZ  O134413446  22.296   2.246   2.310
    1QTZ  O134413447  22.028   2.298   1.332
    1QTZ  Si13413448  22.496   2.090   1.423
    1QTZ  Si13413449  21.929   2.143   2.325
    1QTZ  Si13413450  22.219   2.030   1.939
    1QTZ  Si13413451  21.733   2.273   1.930
    1QTZ  Si13413452  22.322   2.279   2.484
    1QTZ  Si13413453  22.055   2.266   1.503
    1QTZ  Si13413454  22.011   2.406   2.505
    1QTZ  Si13413455  21.756   2.343   1.605
    1QTZ  Si13413456  22.310   2.274   2.133
    1QTZ  Si13413457  21.913   2.029   2.008
    1QTZ  Si13413458  22.540   2.029   2.526
    1QTZ  Si13413459  22.232   2.015   1.602
    1QTZ  O134613460  22.045   2.496   1.106
    1QTZ  O134613461  22.599   2.550   0.210
    1QTZ  O134613462  22.342   2.421   0.559
    1QTZ  O134613463  21.913   2.880   0.672
    1QTZ  O134613464  22.462   2.859   1.037
    1QTZ  O134613465  22.141   2.904   0.025
    1QTZ  O134613466  22.223   2.794   1.113
    1QTZ  O134613467  21.951   2.843   0.201
    1QTZ  O134613468  22.507   2.749   0.661
    1QTZ  O134613469  22.037   2.573   0.822
    1QTZ  O134713470  22.269   2.495   0.279
    1QTZ  O134713471  21.983   2.744   1.056
    1QTZ  O134713472  21.698   2.792   0.176
    1QTZ  O134713473  22.285   2.675   0.525
    1QTZ  O134713474  21.898   2.631   0.580
    1QTZ  O134713475  22.387   2.608   1.023
    1QTZ  O134713476  22.128   2.652   0.114
    1QTZ  O134713477  22.396   2.591   0.034
    1QTZ  O134713478  21.811   2.552   0.992
    1QTZ  O134713479  22.107   2.493   0.531
    1QTZ  O134813480  21.784   2.857   0.432
    1QTZ  O134813481  22.289   2.776   0.817
    1QTZ  O134813482  21.868   2.715   0.002
    1QTZ  Si13413483  22.554   2.656   0.084
    1QTZ  Si13413484  21.974   2.592   0.985
    1QTZ  Si13413485  22.255   2.523   0.456
    1QTZ  Si13413486  21.818   2.777   0.582
    1QTZ  Si13413487  22.333   2.762   0.987
    1QTZ  Si13413488  22.025   2.777   0.063
    1QTZ  Si13413489  22.069   2.837   1.166
    1QTZ  Si13413490  21.801   2.891   0.264
    1QTZ  Si13413491  22.345   2.776   0.650
    1QTZ  Si13413492  21.998   2.522   0.660
    1QTZ  Si13413493  22.511   2.515   1.086
    1QTZ  Si13413494  22.243   2.528   0.105
    1QTZ  O134913495  22.033   2.543   2.413
    1QTZ  O134913496  22.583   2.495   1.533
    1QTZ  O134913497  22.280   2.426   2.064
    1QTZ  O134913498  21.834   2.878   2.009
    1QTZ  O134913499  22.437   2.900   2.475
    1QTZ  O135013500  22.179   2.856   1.566
    1QTZ  O135013501  22.169   2.839   2.555
    1QTZ  O135013502  21.920   2.800   1.597
    1QTZ  O135013503  22.458   2.743   2.059
    1QTZ  O135013504  21.947   2.607   2.157
    1QTZ  O135013505  22.537   2.546   1.257
    1QTZ  O135013506  22.277   2.527   1.772
    1QTZ  O135013507  21.965   2.798   2.379
    1QTZ  O135013508  21.686   2.744   1.483
    1QTZ  O135013509  22.224   2.670   2.031
    1QTZ  O135113510  21.820   2.629   1.917
    1QTZ  O135113511  22.424   2.655   2.564
    1QTZ  O135113512  22.104   2.610   1.551
    1QTZ  O135113513  22.343   2.545   1.476
    1QTZ  O135113514  21.780   2.594   2.388
    1QTZ  O135113515  22.058   2.500   1.928
    1QTZ  O135113516  21.695   2.821   1.767
    1QTZ  O135113517  22.296   2.744   2.311
    1QTZ  O135113518  22.029   2.796   1.332
    1QTZ  Si13513519  22.496   2.588   1.423
    1QTZ  Si13513520  21.930   2.641   2.325
    1QTZ  Si13513521  22.221   2.527   1.939
    1QTZ  Si13513522  21.733   2.770   1.930
    1QTZ  Si13513523  22.321   2.777   2.485
    1QTZ  Si13513524  22.055   2.764   1.503
    1QTZ  Si13513525  22.011   2.904   2.506
    1QTZ  Si13513526  21.757   2.840   1.605
    1QTZ  Si13513527  22.310   2.772   2.133
    1QTZ  Si13513528  21.914   2.527   2.008
    1QTZ  Si13513529  22.540   2.527   2.526
    1QTZ  Si13513530  22.233   2.513   1.602
    1QTZ  O135313531  22.046   2.993   1.106
    1QTZ  O135313532  22.599   3.048   0.209
    1QTZ  O135313533  22.341   2.919   0.558
    1QTZ  O135313534  21.911   3.377   0.672
    1QTZ  O135313535  22.462   3.356   1.037
    1QTZ  O135313536  22.141   3.402   0.025
    1QTZ  O135313537  22.223   3.293   1.113
    1QTZ  O135313538  21.951   3.341   0.201
    1QTZ  O135313539  22.509   3.247   0.661
    1QTZ  O135413540  22.037   3.071   0.822
    1QTZ  O135413541  22.269   2.994   0.278
    1QTZ  O135413542  21.983   3.242   1.056
    1QTZ  O135413543  21.698   3.290   0.177
    1QTZ  O135413544  22.287   3.173   0.524
    1QTZ  O135413545  21.897   3.129   0.580
    1QTZ  O135413546  22.386   3.106   1.023
    1QTZ  O135413547  22.128   3.150   0.114
    1QTZ  O135413548  22.396   3.089   0.033
    1QTZ  O135413549  21.812   3.049   0.992
    1QTZ  O135513550  22.107   2.993   0.530
    1QTZ  O135513551  21.784   3.355   0.432
    1QTZ  O135513552  22.289   3.273   0.817
    1QTZ  O135513553  21.868   3.213   0.003
    1QTZ  Si13513554  22.554   3.154   0.083
    1QTZ  Si13513555  21.975   3.090   0.985
    1QTZ  Si13513556  22.255   3.021   0.456
    1QTZ  Si13513557  21.817   3.275   0.582
    1QTZ  Si13513558  22.333   3.259   0.987
    1QTZ  Si13513559  22.025   3.274   0.063
    1QTZ  Si13513560  22.069   3.335   1.166
    1QTZ  Si13513561  21.801   3.388   0.265
    1QTZ  Si13513562  22.346   3.274   0.650
    1QTZ  Si13513563  21.998   3.021   0.659
    1QTZ  Si13513564  22.510   3.013   1.086
    1QTZ  Si13513565  22.243   3.026   0.104
    1QTZ  O135613566  22.033   3.040   2.413
    1QTZ  O135613567  22.582   2.992   1.533
    1QTZ  O135613568  22.279   2.923   2.064
    1QTZ  O135613569  21.834   3.376   2.009
    1QTZ  O135713570  22.437   3.398   2.475
    1QTZ  O135713571  22.179   3.354   1.566
    1QTZ  O135713572  22.169   3.337   2.555
    1QTZ  O135713573  21.920   3.298   1.597
    1QTZ  O135713574  22.458   3.241   2.058
    1QTZ  O135713575  21.947   3.105   2.157
    1QTZ  O135713576  22.537   3.044   1.257
    1QTZ  O135713577  22.276   3.025   1.772
    1QTZ  O135713578  21.965   3.296   2.379
    1QTZ  O135713579  21.686   3.242   1.483
    1QTZ  O135813580  22.223   3.167   2.031
    1QTZ  O135813581  21.819   3.127   1.917
    1QTZ  O135813582  22.424   3.153   2.564
    1QTZ  O135813583  22.104   3.107   1.551
    1QTZ  O135813584  22.343   3.043   1.476
    1QTZ  O135813585  21.779   3.091   2.388
    1QTZ  O135813586  22.057   2.998   1.928
    1QTZ  O135813587  21.694   3.319   1.767
    1QTZ  O135813588  22.295   3.242   2.310
    1QTZ  O135813589  22.029   3.293   1.332
    1QTZ  Si13513590  22.496   3.085   1.423
    1QTZ  Si13513591  21.930   3.139   2.325
    1QTZ  Si13513592  22.220   3.025   1.939
    1QTZ  Si13513593  21.733   3.268   1.930
    1QTZ  Si13513594  22.321   3.274   2.484
    1QTZ  Si13513595  22.055   3.261   1.503
    1QTZ  Si13513596  22.011   3.402   2.506
    1QTZ  Si13513597  21.757   3.338   1.605
    1QTZ  Si13513598  22.310   3.269   2.133
    1QTZ  Si13513599  21.914   3.025   2.008
    1QTZ  Si13613600  22.540   3.025   2.526
    1QTZ  Si13613601  22.233   3.010   1.602
    1QTZ  O136013602  22.880   0.007   1.105
    1QTZ  O136013603  23.175   3.417   0.558
    1QTZ  O136013604  22.746   0.391   0.672
    1QTZ  O136013605  23.295   0.370   1.037
    1QTZ  O136013606  22.975   0.416   0.025
    1QTZ  O136013607  23.057   0.306   1.113
    1QTZ  O136013608  22.785   0.355   0.201
    1QTZ  O136013609  23.342   0.261   0.661
    1QTZ  O136113610  22.871   0.085   0.821
    1QTZ  O136113611  23.103   0.007   0.278
    1QTZ  O136113612  22.817   0.255   1.056
    1QTZ  O136113613  22.532   0.304   0.177
    1QTZ  O136113614  23.120   0.186   0.524
    1QTZ  O136113615  22.731   0.142   0.580
    1QTZ  O136113616  23.220   0.119   1.023
    1QTZ  O136113617  22.962   0.164   0.114
    1QTZ  O136113618  23.230   0.103   0.033
    1QTZ  O136113619  22.646   0.063   0.991
    1QTZ  O136213620  22.941   0.006   0.530
    1QTZ  O136213621  22.618   0.369   0.432
    1QTZ  O136213622  23.123   0.287   0.816
    1QTZ  O136213623  22.702   0.227   0.002
    1QTZ  Si13613624  20.051   0.167   0.083
    1QTZ  Si13613625  22.809   0.103   0.984
    1QTZ  Si13613626  23.089   0.035   0.455
    1QTZ  Si13613627  22.651   0.289   0.582
    1QTZ  Si13613628  23.167   0.273   0.987
    1QTZ  Si13613629  22.859   0.288   0.063
    1QTZ  Si13613630  22.903   0.348   1.166
    1QTZ  Si13613631  22.635   0.402   0.264
    1QTZ  Si13613632  23.179   0.288   0.649
    1QTZ  Si13613633  22.832   0.034   0.659
    1QTZ  Si13613634  23.344   0.026   1.086
    1QTZ  Si13613635  23.077   0.040   0.104
    1QTZ  O136313636  22.867   0.054   2.413
    1QTZ  O136313637  23.114   3.421   2.064
    1QTZ  O136313638  22.668   0.390   2.009
    1QTZ  O136313639  23.271   0.411   2.475
    1QTZ  O136413640  23.013   0.368   1.566
    1QTZ  O136413641  23.003   0.350   2.555
    1QTZ  O136413642  22.754   0.312   1.597
    1QTZ  O136413643  23.291   0.255   2.059
    1QTZ  O136413644  22.781   0.118   2.157
    1QTZ  O136413645  23.110   0.038   1.772
    1QTZ  O136413646  22.799   0.309   2.379
    1QTZ  O136413647  22.520   0.255   1.483
    1QTZ  O136413648  23.057   0.181   2.030
    1QTZ  O136413649  22.654   0.140   1.917
    1QTZ  O136513650  23.258   0.166   2.564
    1QTZ  O136513651  22.938   0.121   1.551
    1QTZ  O136513652  23.177   0.057   1.475
    1QTZ  O136513653  22.614   0.105   2.388
    1QTZ  O136513654  22.891   0.011   1.928
    1QTZ  O136513655  22.528   0.332   1.767
    1QTZ  O136513656  23.129   0.255   2.310
    1QTZ  O136513657  22.863   0.306   1.332
    1QTZ  Si13613658  23.330   0.099   1.423
    1QTZ  Si13613659  22.764   0.152   2.324
    1QTZ  Si13613660  23.054   0.038   1.939
    1QTZ  Si13613661  22.567   0.282   1.930
    1QTZ  Si13613662  23.155   0.288   2.484
    1QTZ  Si13613663  22.889   0.275   1.502
    1QTZ  Si13613664  22.845   0.415   2.505
    1QTZ  Si13613665  22.591   0.352   1.604
    1QTZ  Si13613666  23.143   0.283   2.133
    1QTZ  Si13613667  22.748   0.038   2.007
    1QTZ  Si13613668   0.017   0.038   2.526
    1QTZ  Si13613669  23.067   0.024   1.601
    1QTZ  O136713670  22.879   0.505   1.106
    1QTZ  O136713671  23.176   0.430   0.558
    1QTZ  O136713672  22.745   0.888   0.672
    1QTZ  O136713673  23.295   0.868   1.038
    1QTZ  O136713674  22.975   0.914   0.025
    1QTZ  O136713675  23.056   0.804   1.114
    1QTZ  O136713676  22.785   0.853   0.201
    1QTZ  O136713677  23.342   0.759   0.661
    1QTZ  O136713678  22.871   0.582   0.822
    1QTZ  O136713679  23.103   0.505   0.279
    1QTZ  O136813680  22.817   0.753   1.056
    1QTZ  O136813681  22.532   0.802   0.177
    1QTZ  O136813682  23.120   0.684   0.525
    1QTZ  O136813683  22.731   0.640   0.580
    1QTZ  O136813684  23.220   0.617   1.023
    1QTZ  O136813685  22.962   0.661   0.114
    1QTZ  O136813686  23.230   0.600   0.034
    1QTZ  O136813687  22.645   0.561   0.992
    1QTZ  O136813688  22.941   0.503   0.531
    1QTZ  O136813689  22.618   0.866   0.432
    1QTZ  O136913690  23.123   0.785   0.817
    1QTZ  O136913691  22.702   0.725   0.003
    1QTZ  Si13613692  20.051   0.665   0.084
    1QTZ  Si13613693  22.808   0.601   0.985
    1QTZ  Si13613694  23.089   0.532   0.456
    1QTZ  Si13613695  22.651   0.786   0.582
    1QTZ  Si13613696  23.166   0.771   0.988
    1QTZ  Si13613697  22.858   0.786   0.063
    1QTZ  Si13613698  22.903   0.846   1.166
    1QTZ  Si13613699  22.635   0.900   0.265
    1QTZ  Si13713700  23.179   0.786   0.650
    1QTZ  Si13713701  22.832   0.532   0.660
    1QTZ  Si13713702  23.344   0.524   1.086
    1QTZ  Si13713703  23.077   0.538   0.105
    1QTZ  O137013704  22.866   0.552   2.413
    1QTZ  O137013705  23.111   0.435   2.064
    1QTZ  O137013706  22.668   0.887   2.009
    1QTZ  O137013707  23.271   0.909   2.475
    1QTZ  O137013708  23.013   0.865   1.567
    1QTZ  O137013709  23.003   0.848   2.555
    1QTZ  O137113710  22.753   0.809   1.598
    1QTZ  O137113711  23.292   0.750   2.058
    1QTZ  O137113712  22.781   0.616   2.157
    1QTZ  O137113713  23.110   0.536   1.772
    1QTZ  O137113714  22.799   0.807   2.379
    1QTZ  O137113715  22.519   0.753   1.484
    1QTZ  O137113716  23.057   0.679   2.030
    1QTZ  O137113717  22.651   0.638   1.918
    1QTZ  O137113718  23.258   0.663   2.564
    1QTZ  O137113719  22.937   0.619   1.551
    1QTZ  O137213720  23.176   0.555   1.476
    1QTZ  O137213721  22.613   0.603   2.388
    1QTZ  O137213722  22.890   0.510   1.927
    1QTZ  O137213723  22.528   0.831   1.768
    1QTZ  O137213724  23.130   0.753   2.310
    1QTZ  O137213725  22.862   0.805   1.332
    1QTZ  Si13713726  23.330   0.597   1.423
    1QTZ  Si13713727  22.763   0.650   2.325
    1QTZ  Si13713728  23.053   0.536   1.939
    1QTZ  Si13713729  22.566   0.780   1.930
    1QTZ  Si13713730  23.155   0.785   2.484
    1QTZ  Si13713731  22.888   0.773   1.503
    1QTZ  Si13713732  22.845   0.913   2.506
    1QTZ  Si13713733  22.590   0.850   1.605
    1QTZ  Si13713734  23.144   0.780   2.133
    1QTZ  Si13713735  22.747   0.536   2.008
    1QTZ  Si13713736   0.017   0.536   2.526
    1QTZ  Si13713737  23.066   0.522   1.601
    1QTZ  O137313738  22.879   1.003   1.106
    1QTZ  O137313739  23.175   0.928   0.559
    1QTZ  O137413740  22.746   1.386   0.672
    1QTZ  O137413741  23.295   1.366   1.037
    1QTZ  O137413742  22.975   1.411   0.025
    1QTZ  O137413743  23.057   1.301   1.113
    1QTZ  O137413744  22.785   1.350   0.201
    1QTZ  O137413745  23.341   1.256   0.661
    1QTZ  O137413746  22.871   1.080   0.822
    1QTZ  O137413747  23.103   1.002   0.279
    1QTZ  O137413748  22.817   1.251   1.056
    1QTZ  O137413749  22.532   1.299   0.177
    1QTZ  O137513750  23.119   1.181   0.525
    1QTZ  O137513751  22.731   1.138   0.580
    1QTZ  O137513752  23.220   1.115   1.023
    1QTZ  O137513753  22.962   1.159   0.114
    1QTZ  O137513754  23.230   1.098   0.034
    1QTZ  O137513755  22.645   1.059   0.992
    1QTZ  O137513756  22.941   1.001   0.531
    1QTZ  O137513757  22.618   1.364   0.433
    1QTZ  O137513758  23.123   1.283   0.817
    1QTZ  O137513759  22.702   1.222   0.003
    1QTZ  Si13713760  20.051   1.163   0.084
    1QTZ  Si13713761  22.808   1.099   0.985
    1QTZ  Si13713762  23.088   1.030   0.456
    1QTZ  Si13713763  22.651   1.284   0.582
    1QTZ  Si13713764  23.166   1.268   0.987
    1QTZ  Si13713765  22.859   1.284   0.064
    1QTZ  Si13713766  22.903   1.344   1.166
    1QTZ  Si13713767  22.635   1.398   0.265
    1QTZ  Si13713768  23.179   1.283   0.650
    1QTZ  Si13713769  22.832   1.029   0.660
    1QTZ  Si13713770  23.344   1.022   1.087
    1QTZ  Si13713771  23.077   1.035   0.105
    1QTZ  O137713772  22.867   1.049   2.413
    1QTZ  O137713773  23.115   0.932   2.064
    1QTZ  O137713774  22.667   1.385   2.009
    1QTZ  O137713775  23.271   1.407   2.475
    1QTZ  O137713776  23.013   1.363   1.566
    1QTZ  O137713777  23.003   1.346   2.556
    1QTZ  O137713778  22.754   1.307   1.597
    1QTZ  O137713779  23.291   1.251   2.060
    1QTZ  O137813780  22.781   1.114   2.157
    1QTZ  O137813781  23.111   1.034   1.772
    1QTZ  O137813782  22.799   1.305   2.380
    1QTZ  O137813783  22.520   1.251   1.483
    1QTZ  O137813784  23.057   1.176   2.031
    1QTZ  O137813785  22.654   1.136   1.917
    1QTZ  O137813786  23.257   1.161   2.565
    1QTZ  O137813787  22.938   1.116   1.551
    1QTZ  O137813788  23.177   1.052   1.476
    1QTZ  O137813789  22.614   1.100   2.388
    1QTZ  O137913790  22.892   1.006   1.929
    1QTZ  O137913791  22.528   1.327   1.767
    1QTZ  O137913792  23.129   1.251   2.311
    1QTZ  O137913793  22.863   1.302   1.332
    1QTZ  Si13713794  23.330   1.094   1.423
    1QTZ  Si13713795  22.764   1.148   2.325
    1QTZ  Si13713796  23.055   1.034   1.939
    1QTZ  Si13713797  22.567   1.277   1.930
    1QTZ  Si13713798  23.155   1.283   2.485
    1QTZ  Si13713799  22.889   1.270   1.503
    1QTZ  Si13813800  22.845   1.411   2.506
    1QTZ  Si13813801  22.591   1.347   1.605
    1QTZ  Si13813802  23.143   1.279   2.134
    1QTZ  Si13813803  22.749   1.034   2.008
    1QTZ  Si13813804   0.016   1.034   2.526
    1QTZ  Si13813805  23.067   1.019   1.602
    1QTZ  O138013806  22.880   1.500   1.106
    1QTZ  O138013807  23.176   1.425   0.559
    1QTZ  O138013808  22.745   1.884   0.672
    1QTZ  O138013809  23.296   1.863   1.038
    1QTZ  O138113810  22.975   1.909   0.025
    1QTZ  O138113811  23.057   1.800   1.114
    1QTZ  O138113812  22.785   1.848   0.201
    1QTZ  O138113813  23.343   1.755   0.662
    1QTZ  O138113814  22.871   1.578   0.822
    1QTZ  O138113815  23.104   1.501   0.279
    1QTZ  O138113816  22.817   1.749   1.057
    1QTZ  O138113817  22.532   1.797   0.177
    1QTZ  O138113818  23.122   1.679   0.525
    1QTZ  O138113819  22.731   1.635   0.580
    1QTZ  O138213820  23.220   1.612   1.024
    1QTZ  O138213821  22.962   1.657   0.114
    1QTZ  O138213822  23.230   1.596   0.034
    1QTZ  O138213823  22.646   1.556   0.992
    1QTZ  O138213824  22.942   1.500   0.531
    1QTZ  O138213825  22.617   1.862   0.432
    1QTZ  O138213826  23.123   1.781   0.817
    1QTZ  O138213827  22.702   1.720   0.003
    1QTZ  Si13813828  20.051   1.660   0.084
    1QTZ  Si13813829  22.809   1.597   0.985
    1QTZ  Si13813830  23.090   1.528   0.456
    1QTZ  Si13813831  22.651   1.781   0.582
    1QTZ  Si13813832  23.167   1.766   0.988
    1QTZ  Si13813833  22.859   1.781   0.063
    1QTZ  Si13813834  22.903   1.842   1.167
    1QTZ  Si13813835  22.635   1.895   0.265
    1QTZ  Si13813836  23.180   1.781   0.650
    1QTZ  Si13813837  22.832   1.528   0.660
    1QTZ  Si13813838  23.344   1.519   1.087
    1QTZ  Si13813839  23.078   1.533   0.105
    1QTZ  O138413840  22.866   1.547   2.413
    1QTZ  O138413841  23.111   1.430   2.065
    1QTZ  O138413842  22.669   1.883   2.009
    1QTZ  O138413843  23.271   1.905   2.475
    1QTZ  O138413844  23.013   1.861   1.567
    1QTZ  O138413845  23.003   1.843   2.555
    1QTZ  O138413846  22.753   1.805   1.598
    1QTZ  O138413847  23.292   1.745   2.058
    1QTZ  O138413848  22.780   1.611   2.157
    1QTZ  O138413849  23.110   1.531   1.773
    1QTZ  O138513850  22.799   1.803   2.379
    1QTZ  O138513851  22.519   1.749   1.484
    1QTZ  O138513852  23.057   1.674   2.031
    1QTZ  O138513853  22.651   1.634   1.918
    1QTZ  O138513854  23.258   1.659   2.564
    1QTZ  O138513855  22.937   1.614   1.552
    1QTZ  O138513856  23.176   1.550   1.476
    1QTZ  O138513857  22.613   1.598   2.389
    1QTZ  O138513858  22.890   1.505   1.928
    1QTZ  O138513859  22.528   1.826   1.768
    1QTZ  O138613860  23.130   1.748   2.310
    1QTZ  O138613861  22.862   1.800   1.332
    1QTZ  Si13813862  23.330   1.592   1.423
    1QTZ  Si13813863  22.763   1.645   2.325
    1QTZ  Si13813864  23.053   1.532   1.939
    1QTZ  Si13813865  22.566   1.776   1.930
    1QTZ  Si13813866  23.156   1.781   2.484
    1QTZ  Si13813867  22.888   1.768   1.503
    1QTZ  Si13813868  22.845   1.908   2.505
    1QTZ  Si13813869  22.590   1.845   1.605
    1QTZ  Si13813870  23.144   1.776   2.133
    1QTZ  Si13813871  22.747   1.532   2.008
    1QTZ  Si13813872   0.017   1.531   2.526
    1QTZ  Si13813873  23.066   1.517   1.602
    1QTZ  O138713874  22.879   1.998   1.106
    1QTZ  O138713875  23.176   1.923   0.559
    1QTZ  O138713876  22.747   2.382   0.671
    1QTZ  O138713877  23.296   2.361   1.037
    1QTZ  O138713878  22.975   2.406   0.024
    1QTZ  O138713879  23.057   2.297   1.113
    1QTZ  O138813880  22.786   2.346   0.201
    1QTZ  O138813881  23.341   2.251   0.660
    1QTZ  O138813882  22.871   2.075   0.822
    1QTZ  O138813883  23.103   1.998   0.279
    1QTZ  O138813884  22.817   2.247   1.056
    1QTZ  O138813885  22.532   2.295   0.176
    1QTZ  O138813886  23.119   2.177   0.525
    1QTZ  O138813887  22.732   2.133   0.580
    1QTZ  O138813888  23.221   2.110   1.023
    1QTZ  O138813889  22.962   2.154   0.114
    1QTZ  O138913890  23.230   2.093   0.034
    1QTZ  O138913891  22.645   2.054   0.992
    1QTZ  O138913892  22.941   1.995   0.531
    1QTZ  O138913893  22.618   2.359   0.432
    1QTZ  O138913894  23.123   2.278   0.817
    1QTZ  O138913895  22.702   2.217   0.003
    1QTZ  Si13813896  20.051   2.158   0.084
    1QTZ  Si13813897  22.808   2.094   0.985
    1QTZ  Si13813898  23.089   2.025   0.456
    1QTZ  Si13813899  22.652   2.280   0.582
    1QTZ  Si13913900  23.167   2.264   0.987
    1QTZ  Si13913901  22.859   2.279   0.063
    1QTZ  Si13913902  22.904   2.339   1.166
    1QTZ  Si13913903  22.635   2.393   0.264
    1QTZ  Si13913904  23.179   2.279   0.649
    1QTZ  Si13913905  22.832   2.025   0.660
    1QTZ  Si13913906  23.345   2.017   1.086
    1QTZ  Si13913907  23.077   2.030   0.105
    1QTZ  O139013908  22.867   2.045   2.413
    1QTZ  O139013909  23.115   1.928   2.064
    1QTZ  O139113910  22.668   2.380   2.009
    1QTZ  O139113911  23.271   2.402   2.475
    1QTZ  O139113912  23.014   2.359   1.566
    1QTZ  O139113913  23.003   2.342   2.555
    1QTZ  O139113914  22.754   2.303   1.597
    1QTZ  O139113915  23.292   2.246   2.059
    1QTZ  O139113916  22.782   2.109   2.157
    1QTZ  O139113917  23.111   2.029   1.772
    1QTZ  O139113918  22.800   2.300   2.379
    1QTZ  O139113919  22.520   2.246   1.483
    1QTZ  O139213920  23.058   2.172   2.031
    1QTZ  O139213921  22.654   2.131   1.917
    1QTZ  O139213922  23.258   2.157   2.564
    1QTZ  O139213923  22.938   2.112   1.551
    1QTZ  O139213924  23.177   2.047   1.476
    1QTZ  O139213925  22.614   2.096   2.388
    1QTZ  O139213926  22.892   2.002   1.928
    1QTZ  O139213927  22.529   2.323   1.767
    1QTZ  O139213928  23.129   2.247   2.311
    1QTZ  O139213929  22.863   2.298   1.332
    1QTZ  Si13913930  23.330   2.090   1.423
    1QTZ  Si13913931  22.764   2.143   2.325
    1QTZ  Si13913932  23.055   2.029   1.939
    1QTZ  Si13913933  22.567   2.272   1.929
    1QTZ  Si13913934  23.155   2.279   2.485
    1QTZ  Si13913935  22.890   2.266   1.502
    1QTZ  Si13913936  22.845   2.406   2.505
    1QTZ  Si13913937  22.591   2.343   1.604
    1QTZ  Si13913938  23.144   2.274   2.133
    1QTZ  Si13913939  22.749   2.029   2.008
    1QTZ  Si13913940   0.017   2.029   2.526
    1QTZ  Si13913941  23.067   2.015   1.602
    1QTZ  O139413942  22.880   2.496   1.105
    1QTZ  O139413943  23.176   2.421   0.558
    1QTZ  O139413944  22.745   2.879   0.672
    1QTZ  O139413945  23.296   2.859   1.037
    1QTZ  O139413946  22.975   2.904   0.024
    1QTZ  O139413947  23.057   2.795   1.113
    1QTZ  O139413948  22.785   2.843   0.201
    1QTZ  O139413949  23.343   2.750   0.661
    1QTZ  O139513950  22.871   2.574   0.821
    1QTZ  O139513951  23.104   2.496   0.278
    1QTZ  O139513952  22.817   2.744   1.056
    1QTZ  O139513953  22.532   2.792   0.176
    1QTZ  O139513954  23.122   2.675   0.524
    1QTZ  O139513955  22.731   2.631   0.580
    1QTZ  O139513956  23.220   2.608   1.023
    1QTZ  O139513957  22.962   2.652   0.114
    1QTZ  O139513958  23.230   2.591   0.033
    1QTZ  O139513959  22.646   2.552   0.991
    1QTZ  O139613960  22.942   2.495   0.530
    1QTZ  O139613961  22.618   2.857   0.432
    1QTZ  O139613962  23.124   2.776   0.816
    1QTZ  O139613963  22.702   2.715   0.002
    1QTZ  Si13913964  20.052   2.656   0.083
    1QTZ  Si13913965  22.809   2.592   0.984
    1QTZ  Si13913966  23.090   2.523   0.455
    1QTZ  Si13913967  22.651   2.777   0.581
    1QTZ  Si13913968  23.167   2.762   0.987
    1QTZ  Si13913969  22.859   2.777   0.063
    1QTZ  Si13913970  22.903   2.837   1.166
    1QTZ  Si13913971  22.635   2.891   0.264
    1QTZ  Si13913972  23.180   2.777   0.650
    1QTZ  Si13913973  22.833   2.524   0.659
    1QTZ  Si13913974  23.344   2.515   1.086
    1QTZ  Si13913975  23.078   2.528   0.104
    1QTZ  O139713976  22.867   2.543   2.413
    1QTZ  O139713977  23.112   2.426   2.064
    1QTZ  O139713978  22.669   2.878   2.009
    1QTZ  O139713979  23.271   2.900   2.475
    1QTZ  O139813980  23.013   2.856   1.566
    1QTZ  O139813981  23.003   2.839   2.555
    1QTZ  O139813982  22.754   2.800   1.597
    1QTZ  O139813983  23.292   2.742   2.058
    1QTZ  O139813984  22.781   2.607   2.157
    1QTZ  O139813985  23.110   2.527   1.772
    1QTZ  O139813986  22.800   2.798   2.379
    1QTZ  O139813987  22.520   2.744   1.483
    1QTZ  O139813988  23.057   2.670   2.030
    1QTZ  O139813989  22.653   2.629   1.917
    1QTZ  O139913990  23.258   2.655   2.564
    1QTZ  O139913991  22.938   2.610   1.551
    1QTZ  O139913992  23.177   2.546   1.475
    1QTZ  O139913993  22.614   2.594   2.388
    1QTZ  O139913994  22.891   2.500   1.927
    1QTZ  O139913995  22.528   2.821   1.767
    1QTZ  O139913996  23.130   2.744   2.310
    1QTZ  O139913997  22.863   2.795   1.332
    1QTZ  Si13913998  23.331   2.588   1.423
    1QTZ  Si13913999  22.764   2.641   2.324
    1QTZ  Si14014000  23.054   2.527   1.939
    1QTZ  Si14014001  22.567   2.771   1.930
    1QTZ  Si14014002  23.156   2.776   2.484
    1QTZ  Si14014003  22.889   2.764   1.502
    1QTZ  Si14014004  22.845   2.904   2.505
    1QTZ  Si14014005  22.591   2.840   1.604
    1QTZ  Si14014006  23.144   2.772   2.132
    1QTZ  Si14014007  22.748   2.527   2.007
    1QTZ  Si14014008   0.017   2.527   2.526
    1QTZ  Si14014009  23.067   2.513   1.601
    1QTZ  O140114010  22.880   2.993   1.106
    1QTZ  O140114011  23.176   2.919   0.558
    1QTZ  O140114012  22.746   3.377   0.671
    1QTZ  O140114013  23.296   3.357   1.037
    1QTZ  O140114014  22.975   3.402   0.024
    1QTZ  O140114015  23.057   3.292   1.113
    1QTZ  O140114016  22.785   3.341   0.200
    1QTZ  O140114017  23.342   3.247   0.660
    1QTZ  O140114018  22.871   3.070   0.822
    1QTZ  O140114019  23.103   2.993   0.278
    1QTZ  O140214020  22.817   3.242   1.056
    1QTZ  O140214021  22.532   3.290   0.176
    1QTZ  O140214022  23.119   3.172   0.525
    1QTZ  O140214023  22.732   3.128   0.579
    1QTZ  O140214024  23.221   3.106   1.022
    1QTZ  O140214025  22.962   3.150   0.114
    1QTZ  O140214026  23.230   3.089   0.033
    1QTZ  O140214027  22.646   3.050   0.992
    1QTZ  O140214028  22.941   2.991   0.531
    1QTZ  O140214029  22.618   3.355   0.432
    1QTZ  O140314030  23.123   3.274   0.816
    1QTZ  O140314031  22.702   3.213   0.002
    1QTZ  Si14014032  20.051   3.154   0.083
    1QTZ  Si14014033  22.809   3.090   0.984
    1QTZ  Si14014034  23.089   3.021   0.456
    1QTZ  Si14014035  22.652   3.275   0.581
    1QTZ  Si14014036  23.167   3.259   0.987
    1QTZ  Si14014037  22.859   3.274   0.063
    1QTZ  Si14014038  22.903   3.335   1.166
    1QTZ  Si14014039  22.635   3.388   0.264
    1QTZ  Si14014040  23.179   3.274   0.649
    1QTZ  Si14014041  22.832   3.020   0.659
    1QTZ  Si14014042  23.345   3.013   1.086
    1QTZ  Si14014043  23.077   3.026   0.104
    1QTZ  O140414044  22.867   3.041   2.412
    1QTZ  O140414045  23.113   2.923   2.063
    1QTZ  O140414046  22.668   3.376   2.009
    1QTZ  O140414047  23.271   3.398   2.475
    1QTZ  O140414048  23.013   3.354   1.566
    1QTZ  O140414049  23.003   3.337   2.555
    1QTZ  O140514050  22.754   3.298   1.597
    1QTZ  O140514051  23.292   3.240   2.058
    1QTZ  O140514052  22.781   3.105   2.156
    1QTZ  O140514053  23.110   3.025   1.772
    1QTZ  O140514054  22.800   3.296   2.379
    1QTZ  O140514055  22.520   3.242   1.483
    1QTZ  O140514056  23.058   3.167   2.030
    1QTZ  O140514057  22.653   3.127   1.917
    1QTZ  O140514058  23.258   3.152   2.564
    1QTZ  O140514059  22.938   3.107   1.551
    1QTZ  O140614060  23.177   3.043   1.475
    1QTZ  O140614061  22.614   3.091   2.388
    1QTZ  O140614062  22.891   2.998   1.927
    1QTZ  O140614063  22.528   3.319   1.767
    1QTZ  O140614064  23.130   3.242   2.310
    1QTZ  O140614065  22.863   3.293   1.332
    1QTZ  Si14014066  23.330   3.085   1.422
    1QTZ  Si14014067  22.764   3.139   2.324
    1QTZ  Si14014068  23.054   3.025   1.938
    1QTZ  Si14014069  22.567   3.268   1.930
    1QTZ  Si14014070  23.155   3.274   2.484
    1QTZ  Si14014071  22.889   3.262   1.502
    1QTZ  Si14014072  22.845   3.402   2.505
    1QTZ  Si14014073  22.591   3.338   1.604
    1QTZ  Si14014074  23.144   3.269   2.133
    1QTZ  Si14014075  22.748   3.025   2.007
    1QTZ  Si14014076   0.017   3.025   2.526
    1QTZ  Si14014077  23.067   3.010   1.601
    1QTZ  O140714078  20.097   0.061   0.209
    1QTZ  O140714079  20.080   0.006   1.533
    1QTZ  O140814080   0.013   0.058   1.257
    1QTZ  O140814081  20.097   0.559   0.210
    1QTZ  O140814082  20.079   0.504   1.533
    1QTZ  O140814083   0.013   0.555   1.257
    1QTZ  O140814084  20.096   1.057   0.210
    1QTZ  O140814085  20.080   1.001   1.533
    1QTZ  O140814086   0.013   1.053   1.257
    1QTZ  O140814087  20.097   1.555   0.210
    1QTZ  O140814088  20.079   1.499   1.533
    1QTZ  O140814089   0.013   1.550   1.257
    1QTZ  O140914090  20.097   2.052   0.210
    1QTZ  O140914091  20.080   1.997   1.533
    1QTZ  O140914092  20.034   2.049   1.257
    1QTZ  O140914093  20.097   2.550   0.209
    1QTZ  O140914094  20.080   2.495   1.533
    1QTZ  O140914095  20.034   2.546   1.257
    1QTZ  O140914096  20.097   3.048   0.209
    1QTZ  O140914097  20.080   2.993   1.532
    1QTZ  O140914098  20.034   3.044   1.256
    1QTZ  O140914099   0.009   0.304   0.176
    1QTZ  O141014100  23.354   0.255   1.483
    1QTZ  O141014101   0.009   0.802   0.177
    1QTZ  O141014102  23.354   0.753   1.483
    1QTZ  O141014103   0.009   1.299   0.177
    1QTZ  O141014104  23.353   1.251   1.484
    1QTZ  O141014105   0.009   1.797   0.177
    1QTZ  O141014106  23.354   1.749   1.483
    1QTZ  O141014107   0.009   2.295   0.176
    1QTZ  O141014108  23.353   2.246   1.483
    1QTZ  O141014109   0.009   2.792   0.176
    1QTZ  O141114110  23.354   2.744   1.483
    1QTZ  O141114111   0.009   3.290   0.176
    1QTZ  O141114112  23.354   3.242   1.483
    1SOL     OW14113  11.731   1.367   6.248
    1SOL    HW114114  11.654   1.323   6.286
    1SOL    HW214115  11.779   1.297   6.205
    1SOL     MW14116  11.727   1.353   6.247
    2SOL     OW14117  11.712   3.048   5.528
    2SOL    HW114118  11.728   3.142   5.539
    2SOL    HW214119  11.796   3.007   5.542
    2SOL     MW14120  11.724   3.055   5.531
    3SOL     OW14121  10.390   1.445   3.436
    3SOL    HW114122  10.377   1.508   3.508
    3SOL    HW214123  10.481   1.456   3.411
    3SOL     MW14124  10.399   1.454   3.442
    4SOL     OW14125  11.618   0.486   6.488
    4SOL    HW114126  11.594   0.426   6.417
    4SOL    HW214127  11.709   0.507   6.471
    4SOL     MW14128  11.626   0.481   6.477
    5SOL     OW14129  12.041   0.775   4.118
    5SOL    HW114130  12.024   0.717   4.193
    5SOL    HW214131  12.129   0.808   4.134
    5SOL     MW14132  12.049   0.772   4.129
    6SOL     OW14133  11.328   0.739   5.467
    6SOL    HW114134  11.276   0.770   5.391
    6SOL    HW214135  11.342   0.818   5.518
    6SOL     MW14136  11.323   0.752   5.464
    7SOL     OW14137  10.213   1.285   5.712
    7SOL    HW114138  10.223   1.192   5.690
    7SOL    HW214139  10.120   1.302   5.701
    7SOL     MW14140  10.203   1.276   5.708
    8SOL     OW14141  10.206   1.867   4.331
    8SOL    HW114142  10.297   1.890   4.353
    8SOL    HW214143  10.214   1.810   4.255
    8SOL     MW14144  10.218   1.863   4.325
    9SOL     OW14145  12.008   2.356   3.695
    9SOL    HW114146  11.976   2.387   3.609
    9SOL    HW214147  11.953   2.281   3.714
    9SOL     MW14148  11.998   2.351   3.687
   10SOL     OW14149  10.286   2.736   3.476
   10SOL    HW114150  10.201   2.780   3.477
   10SOL    HW214151  10.343   2.794   3.427
   10SOL     MW14152  10.283   2.748   3.470
   11SOL     OW14153  11.499   0.009   5.574
   11SOL    HW114154  11.577  -0.004   5.629
   11SOL    HW214155  11.532   0.007   5.485
   11SOL     MW14156  11.512   0.007   5.570
   12SOL     OW14157  12.237   0.617   5.972
   12SOL    HW114158  12.195   0.692   6.016
   12SOL    HW214159  12.328   0.642   5.965
   12SOL     MW14160  12.243   0.629   5.976
   13SOL     OW14161  10.123   2.424   4.987
   13SOL    HW114162  10.045   2.414   5.043
   13SOL    HW214163  10.115   2.511   4.951
   13SOL     MW14164  10.113   2.433   4.990
   14SOL     OW14165  11.415   1.960   4.122
   14SOL    HW114166  11.360   1.895   4.077
   14SOL    HW214167  11.501   1.950   4.082
   14SOL     MW14168  11.419   1.951   4.112
   15SOL     OW14169  11.416   3.153   4.945
   15SOL    HW114170  11.462   3.112   4.872
   15SOL    HW214171  11.459   3.118   5.022
   15SOL     MW14172  11.427   3.144   4.945
   16SOL     OW14173  12.317   2.241   5.528
   16SOL    HW114174  12.361   2.170   5.480
   16SOL    HW214175  12.307   2.310   5.464
   16SOL     MW14176  12.321   2.240   5.515
   17SOL     OW14177  11.645   2.541   5.633
   17SOL    HW114178  11.643   2.616   5.572
   17SOL    HW214179  11.603   2.574   5.711
   17SOL     MW14180  11.640   2.554   5.635
   18SOL     OW14181  10.123   1.527   5.641
   18SOL    HW114182  10.074   1.560   5.565
   18SOL    HW214183  10.214   1.531   5.613
   18SOL     MW14184  10.128   1.531   5.628
   19SOL     OW14185  12.589   0.957   6.510
   19SOL    HW114186  12.633   0.881   6.471
   19SOL    HW214187  12.497   0.936   6.506
   19SOL     MW14188  12.584   0.945   6.505
   20SOL     OW14189  10.758   1.238   4.437
   20SOL    HW114190  10.789   1.268   4.523
   20SOL    HW214191  10.729   1.149   4.451
   20SOL     MW14192  10.758   1.231   4.449
   21SOL     OW14193  11.066   2.506   5.491
   21SOL    HW114194  11.114   2.455   5.425
   21SOL    HW214195  11.133   2.558   5.534
   21SOL     MW14196  11.080   2.506   5.488
   22SOL     OW14197  11.743   2.887   3.088
   22SOL    HW114198  11.732   2.799   3.126
   22SOL    HW214199  11.656   2.926   3.094
   22SOL     MW14200  11.731   2.881   3.093
   23SOL     OW14201  13.128   2.073   5.521
   23SOL    HW114202  13.101   2.103   5.608
   23SOL    HW214203  13.192   2.006   5.539
   23SOL     MW14204  13.132   2.069   5.534
   24SOL     OW14205  11.619   0.822   5.333
   24SOL    HW114206  11.654   0.806   5.421
   24SOL    HW214207  11.606   0.734   5.298
   24SOL     MW14208  11.622   0.809   5.340
   25SOL     OW14209  11.464   2.251   6.063
   25SOL    HW114210  11.384   2.278   6.016
   25SOL    HW214211  11.440   2.256   6.154
   25SOL     MW14212  11.451   2.255   6.068
   26SOL     OW14213  10.827   2.031   4.137
   26SOL    HW114214  10.769   2.074   4.201
   26SOL    HW214215  10.914   2.062   4.162
   26SOL     MW14216  10.830   2.040   4.148
   27SOL     OW14217  11.948   0.146   6.139
   27SOL    HW114218  11.961   0.184   6.051
   27SOL    HW214219  11.860   0.112   6.137
   27SOL     MW14220  11.940   0.146   6.128
   28SOL     OW14221  10.839   1.512   6.159
   28SOL    HW114222  10.809   1.505   6.250
   28SOL    HW214223  10.874   1.600   6.153
   28SOL     MW14224  10.840   1.522   6.169
   29SOL     OW14225  11.211   3.224   5.564
   29SOL    HW114226  11.122   3.238   5.597
   29SOL    HW214227  11.257   3.303   5.587
   29SOL     MW14228  11.206   3.235   5.571
   30SOL     OW14229  10.955   1.698   6.423
   30SOL    HW114230  10.921   1.714   6.511
   30SOL    HW214231  11.041   1.738   6.423
   30SOL     MW14232  10.961   1.704   6.433
   31SOL     OW14233  13.233   0.000   5.105
   31SOL    HW114234  13.237   0.065   5.176
   31SOL    HW214235  13.142  -0.000   5.079
   31SOL     MW14236  13.223   0.008   5.111
   32SOL     OW14237  10.591   0.537   5.272
   32SOL    HW114238  10.536   0.547   5.351
   32SOL    HW214239  10.663   0.483   5.301
   32SOL     MW14240  10.592   0.532   5.285
   33SOL     OW14241  11.837   1.297   5.446
   33SOL    HW114242  11.776   1.298   5.372
   33SOL    HW214243  11.814   1.219   5.495
   33SOL     MW14244  11.827   1.288   5.443
   34SOL     OW14245  10.853   2.543   4.774
   34SOL    HW114246  10.762   2.548   4.803
   34SOL    HW214247  10.875   2.632   4.749
   34SOL     MW14248  10.845   2.554   4.774
   35SOL     OW14249  12.529   0.320   4.460
   35SOL    HW114250  12.564   0.337   4.372
   35SOL    HW214251  12.473   0.395   4.477
   35SOL     MW14252  12.526   0.331   4.451
   36SOL     OW14253  12.004   2.782   3.573
   36SOL    HW114254  11.955   2.742   3.646
   36SOL    HW214255  12.027   2.868   3.605
   36SOL     MW14256  12.001   2.787   3.586
   37SOL     OW14257  12.766   1.978   6.448
   37SOL    HW114258  12.784   2.063   6.490
   37SOL    HW214259  12.808   1.915   6.505
   37SOL     MW14260  12.773   1.981   6.460
   38SOL     OW14261  11.474   2.693   4.555
   38SOL    HW114262  11.427   2.612   4.531
   38SOL    HW214263  11.530   2.666   4.628
   38SOL     MW14264  11.475   2.680   4.561
   39SOL     OW14265  12.345   1.485   4.828
   39SOL    HW114266  12.387   1.417   4.774
   39SOL    HW214267  12.330   1.443   4.912
   39SOL     MW14268  12.348   1.472   4.832
   40SOL     OW14269  10.174   1.255   4.581
   40SOL    HW114270  10.222   1.302   4.512
   40SOL    HW214271  10.085   1.287   4.574
   40SOL     MW14272  10.170   1.264   4.572
   41SOL     OW14273  11.354   0.085   5.334
   41SOL    HW114274  11.354   0.023   5.260
   41SOL    HW214275  11.352   0.171   5.293
   41SOL     MW14276  11.354   0.088   5.320
   42SOL     OW14277  12.622   0.229   3.913
   42SOL    HW114278  12.606   0.324   3.914
   42SOL    HW214279  12.703   0.220   3.865
   42SOL     MW14280  12.630   0.239   3.907
   43SOL     OW14281  10.662   1.557   4.865
   43SOL    HW114282  10.596   1.602   4.813
   43SOL    HW214283  10.625   1.471   4.882
   43SOL     MW14284  10.650   1.552   4.861
   44SOL     OW14285  11.957   2.191   5.463
   44SOL    HW114286  11.991   2.172   5.375
   44SOL    HW214287  12.011   2.263   5.494
   44SOL     MW14288  11.968   2.198   5.456
   45SOL     OW14289  10.928   2.312   3.603
   45SOL    HW114290  10.928   2.301   3.508
   45SOL    HW214291  10.847   2.359   3.621
   45SOL     MW14292  10.919   2.316   3.594
   46SOL     OW14293  12.038   2.732   5.411
   46SOL    HW114294  12.122   2.734   5.364
   46SOL    HW214295  11.989   2.804   5.375
   46SOL     MW14296  12.042   2.741   5.401
   47SOL     OW14297  13.056   2.962   5.073
   47SOL    HW114298  13.107   2.880   5.071
   47SOL    HW214299  13.092   3.013   5.001
   47SOL     MW14300  13.066   2.958   5.064
   48SOL     OW14301  11.087   3.096   4.842
   48SOL    HW114302  11.130   3.182   4.845
   48SOL    HW214303  11.065   3.085   4.750
   48SOL     MW14304  11.090   3.105   4.831
   49SOL     OW14305  12.477   0.173   5.012
   49SOL    HW114306  12.476   0.251   4.956
   49SOL    HW214307  12.454   0.101   4.954
   49SOL     MW14308  12.474   0.174   4.999
   50SOL     OW14309  11.699   2.314   4.901
   50SOL    HW114310  11.686   2.238   4.959
   50SOL    HW214311  11.781   2.351   4.930
   50SOL     MW14312  11.707   2.309   4.911
   51SOL     OW14313  11.565  -0.002   6.186
   51SOL    HW114314  11.584   0.033   6.098
   51SOL    HW214315  11.527   0.071   6.232
   51SOL     MW14316  11.563   0.011   6.180
   52SOL     OW14317  11.307   0.371   6.045
   52SOL    HW114318  11.341   0.296   5.995
   52SOL    HW214319  11.252   0.332   6.111
   52SOL     MW14320  11.304   0.357   6.047
   53SOL     OW14321  11.309   1.114   3.829
   53SOL    HW114322  11.320   1.091   3.736
   53SOL    HW214323  11.371   1.059   3.874
   53SOL     MW14324  11.317   1.105   3.823
   54SOL     OW14325  12.499   0.753   5.872
   54SOL    HW114326  12.521   0.729   5.781
   54SOL    HW214327  12.575   0.727   5.922
   54SOL     MW14328  12.511   0.747   5.867
   55SOL     OW14329  11.196   1.654   5.357
   55SOL    HW114330  11.256   1.613   5.294
   55SOL    HW214331  11.249   1.666   5.435
   55SOL     MW14332  11.210   1.651   5.359
   56SOL     OW14333  10.244   1.838   5.497
   56SOL    HW114334  10.296   1.913   5.526
   56SOL    HW214335  10.308   1.770   5.479
   56SOL     MW14336  10.258   1.839   5.499
   57SOL     OW14337  12.394   3.220   4.777
   57SOL    HW114338  12.392   3.126   4.756
   57SOL    HW214339  12.484   3.245   4.760
   57SOL     MW14340  12.405   3.211   4.773
   58SOL     OW14341  12.613   2.369   3.688
   58SOL    HW114342  12.681   2.342   3.625
   58SOL    HW214343  12.642   2.454   3.717
   58SOL     MW14344  12.625   2.376   3.684
   59SOL     OW14345  11.674   1.169   3.389
   59SOL    HW114346  11.605   1.118   3.432
   59SOL    HW214347  11.643   1.179   3.299
   59SOL     MW14348  11.662   1.164   3.383
   60SOL     OW14349  13.338   1.689   4.508
   60SOL    HW114350  13.325   1.737   4.425
   60SOL    HW214351  13.340   1.598   4.482
   60SOL     MW14352  13.337   1.684   4.495
   61SOL     OW14353  11.154   2.290   6.511
   61SOL    HW114354  11.134   2.318   6.421
   61SOL    HW214355  11.179   2.199   6.502
   61SOL     MW14356  11.155   2.283   6.498
   62SOL     OW14357  10.276   3.210   4.642
   62SOL    HW114358  10.262   3.305   4.647
   62SOL    HW214359  10.200   3.178   4.595
   62SOL     MW14360  10.265   3.217   4.637
   63SOL     OW14361  13.078   2.427   5.167
   63SOL    HW114362  13.061   2.332   5.178
   63SOL    HW214363  12.991   2.465   5.164
   63SOL     MW14364  13.065   2.420   5.168
   64SOL     OW14365  10.092   1.728   3.824
   64SOL    HW114366  10.014   1.725   3.879
   64SOL    HW214367  10.162   1.699   3.881
   64SOL     MW14368  10.091   1.724   3.838
   65SOL     OW14369  10.998   1.244   5.501
   65SOL    HW114370  10.993   1.329   5.456
   65SOL    HW214371  11.082   1.209   5.475
   65SOL     MW14372  11.007   1.250   5.492
   66SOL     OW14373  10.231   0.879   5.880
   66SOL    HW114374  10.290   0.834   5.942
   66SOL    HW214375  10.152   0.893   5.931
   66SOL     MW14376  10.229   0.875   5.894
   67SOL     OW14377  13.229   0.164   6.124
   67SOL    HW114378  13.244   0.082   6.171
   67SOL    HW214379  13.172   0.214   6.181
   67SOL     MW14380  13.224   0.160   6.136
   68SOL     OW14381  11.137   1.436   4.361
   68SOL    HW114382  11.109   1.417   4.452
   68SOL    HW214383  11.203   1.371   4.343
   68SOL     MW14384  11.141   1.426   4.370
   69SOL     OW14385  13.194   1.468   5.478
   69SOL    HW114386  13.126   1.532   5.457
   69SOL    HW214387  13.275   1.516   5.466
   69SOL     MW14388  13.195   1.481   5.474
   70SOL     OW14389  12.286   2.922   5.002
   70SOL    HW114390  12.266   2.987   5.070
   70SOL    HW214391  12.380   2.925   4.994
   70SOL     MW14392  12.294   2.930   5.009
   71SOL     OW14393  12.627   0.298   5.497
   71SOL    HW114394  12.691   0.301   5.569
   71SOL    HW214395  12.574   0.221   5.516
   71SOL     MW14396  12.628   0.289   5.508
   72SOL     OW14397  10.336   2.542   6.166
   72SOL    HW114398  10.376   2.461   6.201
   72SOL    HW214399  10.343   2.532   6.072
   72SOL     MW14400  10.342   2.531   6.159
   73SOL     OW14401  13.039   2.761   6.251
   73SOL    HW114402  13.053   2.694   6.184
   73SOL    HW214403  13.021   2.712   6.330
   73SOL     MW14404  13.039   2.747   6.252
   74SOL     OW14405  11.421   1.413   4.972
   74SOL    HW114406  11.480   1.387   5.043
   74SOL    HW214407  11.343   1.359   4.985
   74SOL     MW14408  11.419   1.403   4.982
   75SOL     OW14409  11.104   2.826   3.784
   75SOL    HW114410  11.019   2.862   3.813
   75SOL    HW214411  11.100   2.734   3.806
   75SOL     MW14412  11.093   2.820   3.790
   76SOL     OW14413  12.774   3.304   4.979
   76SOL    HW114414  12.763   3.377   5.041
   76SOL    HW214415  12.706   3.318   4.914
   76SOL     MW14416  12.765   3.314   4.979
   77SOL     OW14417  12.925   0.082   5.587
   77SOL    HW114418  12.854   0.085   5.522
   77SOL    HW214419  12.969  -0.001   5.570
   77SOL     MW14420  12.922   0.072   5.577
   78SOL     OW14421  12.609   2.813   4.976
   78SOL    HW114422  12.668   2.762   5.031
   78SOL    HW214423  12.649   2.899   4.972
   78SOL     MW14424  12.621   2.817   4.982
   79SOL     OW14425  12.814   2.120   5.965
   79SOL    HW114426  12.822   2.052   6.032
   79SOL    HW214427  12.897   2.118   5.919
   79SOL     MW14428  12.825   2.112   5.968
   80SOL     OW14429  11.701   2.366   5.857
   80SOL    HW114430  11.640   2.434   5.888
   80SOL    HW214431  11.681   2.358   5.765
   80SOL     MW14432  11.691   2.373   5.850
   81SOL     OW14433  11.643   2.075   5.853
   81SOL    HW114434  11.594   2.017   5.913
   81SOL    HW214435  11.620   2.162   5.882
   81SOL     MW14436  11.634   2.078   5.864
   82SOL     OW14437  10.717   0.946   3.499
   82SOL    HW114438  10.704   0.895   3.579
   82SOL    HW214439  10.659   1.021   3.510
   82SOL     MW14440  10.709   0.949   3.510
   83SOL     OW14441  10.333   2.624   4.521
   83SOL    HW114442  10.405   2.566   4.493
   83SOL    HW214443  10.283   2.638   4.442
   83SOL     MW14444  10.336   2.619   4.508
   84SOL     OW14445  11.515   0.891   5.775
   84SOL    HW114446  11.423   0.864   5.787
   84SOL    HW214447  11.552   0.884   5.862
   84SOL     MW14448  11.508   0.887   5.787
   85SOL     OW14449  10.097   3.201   3.805
   85SOL    HW114450  10.141   3.163   3.881
   85SOL    HW214451  10.011   3.227   3.838
   85SOL     MW14452  10.092   3.200   3.818
   86SOL     OW14453  10.281   2.643   4.807
   86SOL    HW114454  10.342   2.608   4.741
   86SOL    HW214455  10.300   2.736   4.810
   86SOL     MW14456  10.291   2.650   4.799
   87SOL     OW14457  11.122   3.429   3.416
   87SOL    HW114458  11.190   3.402   3.479
   87SOL    HW214459  11.171   3.461   3.341
   87SOL     MW14460  11.136   3.430   3.415
   88SOL     OW14461  12.250   2.099   4.841
   88SOL    HW114462  12.203   2.172   4.881
   88SOL    HW214463  12.216   2.095   4.753
   88SOL     MW14464  12.240   2.107   4.836
   89SOL     OW14465  10.226   1.086   4.857
   89SOL    HW114466  10.261   1.040   4.933
   89SOL    HW214467  10.243   1.178   4.876
   89SOL     MW14468  10.232   1.091   4.869
   90SOL     OW14469  12.870   0.054   5.241
   90SOL    HW114470  12.966   0.045   5.246
   90SOL    HW214471  12.845  -0.000   5.168
   90SOL     MW14472  12.879   0.047   5.233
   91SOL     OW14473  12.701   3.032   3.105
   91SOL    HW114474  12.646   3.105   3.075
   91SOL    HW214475  12.680   3.022   3.197
   91SOL     MW14476  12.692   3.039   3.112
   92SOL     OW14477  12.831   2.225   5.030
   92SOL    HW114478  12.817   2.253   5.121
   92SOL    HW214479  12.753   2.254   4.984
   92SOL     MW14480  12.820   2.232   5.035
   93SOL     OW14481  10.130   3.333   4.024
   93SOL    HW114482  10.047   3.378   4.005
   93SOL    HW214483  10.148   3.354   4.115
   93SOL     MW14484  10.122   3.341   4.032
   94SOL     OW14485  12.876   0.019   6.344
   94SOL    HW114486  12.877   0.084   6.415
   94SOL    HW214487  12.967  -0.009   6.337
   94SOL     MW14488  12.887   0.023   6.352
   95SOL     OW14489  12.059   2.687   3.337
   95SOL    HW114490  12.020   2.655   3.255
   95SOL    HW214491  12.116   2.617   3.365
   95SOL     MW14492  12.061   2.675   3.330
   96SOL     OW14493  11.645   2.098   6.447
   96SOL    HW114494  11.635   2.174   6.505
   96SOL    HW214495  11.645   2.024   6.506
   96SOL     MW14496  11.644   2.098   6.461
   97SOL     OW14497  10.685   3.398   6.305
   97SOL    HW114498  10.613   3.447   6.346
   97SOL    HW214499  10.756   3.461   6.301
   97SOL     MW14500  10.684   3.412   6.309
   98SOL     OW14501  10.675   0.676   3.105
   98SOL    HW114502  10.636   0.755   3.142
   98SOL    HW214503  10.765   0.677   3.138
   98SOL     MW14504  10.681   0.686   3.114
   99SOL     OW14505  10.166   1.831   6.160
   99SOL    HW114506  10.075   1.800   6.157
   99SOL    HW214507  10.160   1.924   6.146
   99SOL     MW14508  10.154   1.838   6.158
  100SOL     OW14509  10.750   1.550   4.562
  100SOL    HW114510  10.697   1.470   4.559
  100SOL    HW214511  10.698   1.611   4.613
  100SOL     MW14512  10.738   1.548   4.568
  101SOL     OW14513  10.442   2.048   3.629
  101SOL    HW114514  10.365   2.044   3.571
  101SOL    HW214515  10.493   1.971   3.605
  101SOL     MW14516  10.439   2.038   3.619
  102SOL     OW14517  12.430   0.485   4.743
  102SOL    HW114518  12.517   0.490   4.783
  102SOL    HW214519  12.419   0.393   4.722
  102SOL     MW14520  12.439   0.475   4.745
  103SOL     OW14521  12.695   1.868   3.712
  103SOL    HW114522  12.647   1.934   3.763
  103SOL    HW214523  12.785   1.895   3.718
  103SOL     MW14524  12.700   1.879   3.719
  104SOL     OW14525  13.070   2.296   5.961
  104SOL    HW114526  13.098   2.209   5.930
  104SOL    HW214527  13.022   2.278   6.041
  104SOL     MW14528  13.068   2.283   5.967
  105SOL     OW14529  10.361   1.477   4.381
  105SOL    HW114530  10.362   1.383   4.363
  105SOL    HW214531  10.342   1.482   4.474
  105SOL     MW14532  10.359   1.466   4.390
  106SOL     OW14533  10.701   2.562   4.531
  106SOL    HW114534  10.687   2.618   4.609
  106SOL    HW214535  10.791   2.578   4.508
  106SOL     MW14536  10.710   2.571   4.538
  107SOL     OW14537  11.207   0.712   5.098
  107SOL    HW114538  11.148   0.700   5.022
  107SOL    HW214539  11.255   0.630   5.103
  107SOL     MW14540  11.205   0.701   5.089
  108SOL     OW14541  12.946   1.805   4.900
  108SOL    HW114542  12.880   1.780   4.965
  108SOL    HW214543  13.022   1.826   4.951
  108SOL     MW14544  12.947   1.804   4.914
  109SOL     OW14545  13.216   2.810   4.799
  109SOL    HW114546  13.205   2.884   4.860
  109SOL    HW214547  13.303   2.777   4.818
  109SOL     MW14548  13.225   2.815   4.809
  110SOL     OW14549  12.513   1.184   5.712
  110SOL    HW114550  12.489   1.210   5.622
  110SOL    HW214551  12.521   1.089   5.707
  110SOL     MW14552  12.511   1.176   5.700
  111SOL     OW14553  10.610   2.236   3.126
  111SOL    HW114554  10.660   2.158   3.154
  111SOL    HW214555  10.533   2.234   3.182
  111SOL     MW14556  10.607   2.226   3.136
  112SOL     OW14557  13.048   1.789   5.306
  112SOL    HW114558  13.091   1.851   5.365
  112SOL    HW214559  13.089   1.706   5.326
  112SOL     MW14560  13.058   1.786   5.315
  113SOL     OW14561  11.442   2.821   4.102
  113SOL    HW114562  11.360   2.773   4.120
  113SOL    HW214563  11.419   2.879   4.031
  113SOL     MW14564  11.429   2.822   4.096
  114SOL     OW14565  11.304   0.956   6.024
  114SOL    HW114566  11.358   0.969   6.103
  114SOL    HW214567  11.217   0.942   6.057
  114SOL     MW14568  11.300   0.956   6.038
  115SOL     OW14569  10.082   0.775   4.842
  115SOL    HW114570  10.129   0.859   4.834
  115SOL    HW214571  10.049   0.776   4.931
  115SOL     MW14572  10.084   0.785   4.852
  116SOL     OW14573  12.913   1.208   5.985
  116SOL    HW114574  12.889   1.256   6.065
  116SOL    HW214575  12.857   1.132   5.986
  116SOL     MW14576  12.903   1.205   5.995
  117SOL     OW14577  10.535   1.304   6.329
  117SOL    HW114578  10.559   1.322   6.421
  117SOL    HW214579  10.585   1.227   6.307
  117SOL     MW14580  10.544   1.297   6.338
  118SOL     OW14581  12.826   2.224   5.339
  118SOL    HW114582  12.797   2.256   5.425
  118SOL    HW214583  12.910   2.184   5.356
  118SOL     MW14584  12.833   2.223   5.351
  119SOL     OW14585  11.231   1.056   3.453
  119SOL    HW114586  11.287   1.135   3.456
  119SOL    HW214587  11.149   1.084   3.492
  119SOL     MW14588  11.228   1.069   3.458
  120SOL     OW14589  13.188   2.418   3.522
  120SOL    HW114590  13.237   2.485   3.473
  120SOL    HW214591  13.101   2.421   3.483
  120SOL     MW14592  13.183   2.427   3.511
  121SOL     OW14593  10.050   3.010   3.627
  121SOL    HW114594  10.010   3.098   3.631
  121SOL    HW214595  10.112   3.010   3.699
  121SOL     MW14596  10.053   3.021   3.636
  122SOL     OW14597  13.186   2.123   4.991
  122SOL    HW114598  13.238   2.075   4.926
  122SOL    HW214599  13.205   2.214   4.974
  122SOL     MW14600  13.194   2.128   4.981
  123SOL     OW14601  11.248   1.923   4.863
  123SOL    HW114602  11.341   1.929   4.887
  123SOL    HW214603  11.202   1.941   4.943
  123SOL     MW14604  11.254   1.926   4.875
  124SOL     OW14605  11.706   1.428   5.891
  124SOL    HW114606  11.685   1.508   5.942
  124SOL    HW214607  11.621   1.389   5.874
  124SOL     MW14608  11.693   1.433   5.895
  125SOL     OW14609  11.924   1.679   3.893
  125SOL    HW114610  11.863   1.692   3.966
  125SOL    HW214611  11.983   1.753   3.899
  125SOL     MW14612  11.924   1.689   3.903
  126SOL     OW14613  10.875   1.946   6.252
  126SOL    HW114614  10.844   1.855   6.251
  126SOL    HW214615  10.969   1.939   6.267
  126SOL     MW14616  10.882   1.934   6.254
  127SOL     OW14617  10.969   2.846   3.120
  127SOL    HW114618  10.957   2.929   3.167
  127SOL    HW214619  11.057   2.818   3.143
  127SOL     MW14620  10.978   2.852   3.128
  128SOL     OW14621  13.202   2.420   4.181
  128SOL    HW114622  13.239   2.509   4.174
  128SOL    HW214623  13.191   2.408   4.275
  128SOL     MW14624  13.205   2.430   4.192
  129SOL     OW14625  10.865   0.143   4.726
  129SOL    HW114626  10.774   0.171   4.739
  129SOL    HW214627  10.893   0.115   4.812
  129SOL     MW14628  10.857   0.143   4.738
  130SOL     OW14629  10.798   0.949   4.168
  130SOL    HW114630  10.861   1.011   4.204
  130SOL    HW214631  10.834   0.863   4.188
  130SOL     MW14632  10.810   0.946   4.175
  131SOL     OW14633  12.716   1.965   5.362
  131SOL    HW114634  12.677   1.908   5.295
  131SOL    HW214635  12.798   1.993   5.324
  131SOL     MW14636  12.721   1.962   5.349
  132SOL     OW14637  12.445   3.365   3.299
  132SOL    HW114638  12.436   3.301   3.369
  132SOL    HW214639  12.366   3.418   3.304
  132SOL     MW14640  12.435   3.364   3.308
  133SOL     OW14641  11.058   2.479   5.214
  133SOL    HW114642  11.046   2.561   5.164
  133SOL    HW214643  11.088   2.417   5.149
  133SOL     MW14644  11.060   2.482   5.200
  134SOL     OW14645  12.908   3.132   3.796
  134SOL    HW114646  12.832   3.125   3.855
  134SOL    HW214647  12.941   3.220   3.811
  134SOL     MW14648  12.903   3.142   3.805
  135SOL     OW14649  12.474   1.402   5.756
  135SOL    HW114650  12.451   1.491   5.785
  135SOL    HW214651  12.544   1.376   5.814
  135SOL     MW14652  12.479   1.410   5.766
  136SOL     OW14653  13.151   1.699   3.919
  136SOL    HW114654  13.230   1.647   3.901
  136SOL    HW214655  13.084   1.659   3.865
  136SOL     MW14656  13.153   1.687   3.910
  137SOL     OW14657  10.790   0.146   5.582
  137SOL    HW114658  10.822   0.182   5.666
  137SOL    HW214659  10.733   0.215   5.549
  137SOL     MW14660  10.787   0.159   5.588
  138SOL     OW14661  10.083   3.254   5.043
  138SOL    HW114662  10.008   3.229   4.988
  138SOL    HW214663  10.103   3.175   5.092
  138SOL     MW14664  10.076   3.241   5.042
  139SOL     OW14665  11.371   3.334   5.131
  139SOL    HW114666  11.457   3.377   5.131
  139SOL    HW214667  11.313   3.397   5.090
  139SOL     MW14668  11.374   3.347   5.126
  140SOL     OW14669  12.327   0.975   3.757
  140SOL    HW114670  12.272   0.953   3.681
  140SOL    HW214671  12.399   0.913   3.753
  140SOL     MW14672  12.329   0.965   3.747
  141SOL     OW14673  11.083   0.527   4.234
  141SOL    HW114674  11.043   0.468   4.298
  141SOL    HW214675  11.010   0.569   4.192
  141SOL     MW14676  11.070   0.525   4.237
  142SOL     OW14677  12.965   1.948   4.733
  142SOL    HW114678  13.060   1.937   4.737
  142SOL    HW214679  12.946   2.018   4.794
  142SOL     MW14680  12.974   1.955   4.741
  143SOL     OW14681  13.205   2.969   4.343
  143SOL    HW114682  13.139   2.993   4.408
  143SOL    HW214683  13.278   3.027   4.360
  143SOL     MW14684  13.206   2.979   4.353
  144SOL     OW14685  11.125   0.722   4.506
  144SOL    HW114686  11.067   0.736   4.431
  144SOL    HW214687  11.172   0.643   4.485
  144SOL     MW14688  11.124   0.715   4.495
  145SOL     OW14689  12.710   0.489   4.673
  145SOL    HW114690  12.783   0.429   4.693
  145SOL    HW214691  12.658   0.442   4.610
  145SOL     MW14692  12.713   0.476   4.668
  146SOL     OW14693  13.011   0.641   3.535
  146SOL    HW114694  13.014   0.620   3.629
  146SOL    HW214695  12.943   0.584   3.501
  146SOL     MW14696  13.003   0.632   3.543
  147SOL     OW14697  12.863   0.261   5.700
  147SOL    HW114698  12.916   0.297   5.629
  147SOL    HW214699  12.842   0.336   5.754
  147SOL     MW14700  12.867   0.274   5.698
  148SOL     OW14701  10.157   3.461   5.186
  148SOL    HW114702  10.179   3.369   5.204
  148SOL    HW214703  10.078   3.456   5.134
  148SOL     MW14704  10.150   3.449   5.182
  149SOL     OW14705  11.572   0.345   4.570
  149SOL    HW114706  11.623   0.264   4.582
  149SOL    HW214707  11.609   0.384   4.491
  149SOL     MW14708  11.583   0.340   4.562
  150SOL     OW14709  12.204   1.275   3.635
  150SOL    HW114710  12.243   1.353   3.593
  150SOL    HW214711  12.114   1.274   3.603
  150SOL     MW14712  12.198   1.284   3.626
  151SOL     OW14713  13.281   1.007   5.486
  151SOL    HW114714  13.334   0.927   5.475
  151SOL    HW214715  13.340   1.077   5.462
  151SOL     MW14716  13.294   1.005   5.482
  152SOL     OW14717  12.340   1.553   3.421
  152SOL    HW114718  12.396   1.487   3.462
  152SOL    HW214719  12.387   1.578   3.342
  152SOL     MW14720  12.352   1.547   3.416
  153SOL     OW14721  11.347   0.784   3.787
  153SOL    HW114722  11.271   0.787   3.728
  153SOL    HW214723  11.388   0.701   3.768
  153SOL     MW14724  11.342   0.775   3.778
  154SOL     OW14725  10.896   3.411   5.985
  154SOL    HW114726  10.862   3.467   5.914
  154SOL    HW214727  10.837   3.336   5.985
  154SOL     MW14728  10.884   3.409   5.976
  155SOL     OW14729  11.488   0.792   4.499
  155SOL    HW114730  11.503   0.809   4.593
  155SOL    HW214731  11.394   0.800   4.490
  155SOL     MW14732  11.478   0.795   4.510
  156SOL     OW14733  11.605   0.718   6.303
  156SOL    HW114734  11.661   0.702   6.380
  156SOL    HW214735  11.542   0.647   6.305
  156SOL     MW14736  11.604   0.708   6.313
  157SOL     OW14737  12.346   3.353   5.437
  157SOL    HW114738  12.400   3.334   5.515
  157SOL    HW214739  12.394   3.421   5.392
  157SOL     MW14740  12.358   3.359   5.441
  158SOL     OW14741  11.595   1.562   4.268
  158SOL    HW114742  11.567   1.624   4.200
  158SOL    HW214743  11.662   1.510   4.225
  158SOL     MW14744  11.599   1.563   4.255
  159SOL     OW14745  10.190   2.225   6.194
  159SOL    HW114746  10.122   2.291   6.208
  159SOL    HW214747  10.242   2.228   6.274
  159SOL     MW14748  10.188   2.234   6.205
  160SOL     OW14749  10.907   3.403   6.493
  160SOL    HW114750  10.812   3.414   6.509
  160SOL    HW214751  10.918   3.309   6.486
  160SOL     MW14752  10.896   3.393   6.494
  161SOL     OW14753  10.953   1.362   5.680
  161SOL    HW114754  10.859   1.385   5.678
  161SOL    HW214755  10.969   1.344   5.772
  161SOL     MW14756  10.943   1.363   5.691
  162SOL     OW14757  11.050   1.571   4.795
  162SOL    HW114758  11.108   1.498   4.772
  162SOL    HW214759  11.102   1.624   4.854
  162SOL     MW14760  11.063   1.568   4.799
  163SOL     OW14761  10.271   0.000   4.845
  163SOL    HW114762  10.207   0.070   4.828
  163SOL    HW214763  10.327  -0.000   4.769
  163SOL     MW14764  10.270   0.009   4.834
  164SOL     OW14765  11.502   0.582   4.562
  164SOL    HW114766  11.571   0.563   4.627
  164SOL    HW214767  11.426   0.604   4.615
  164SOL     MW14768  11.501   0.582   4.576
  165SOL     OW14769  12.792   0.575   6.508
  165SOL    HW114770  12.743   0.658   6.501
  165SOL    HW214771  12.775   0.531   6.426
  165SOL     MW14772  12.784   0.580   6.498
  166SOL     OW14773  13.340   0.534   3.823
  166SOL    HW114774  13.340   0.624   3.857
  166SOL    HW214775  13.277   0.536   3.751
  166SOL     MW14776  13.332   0.545   3.819
  167SOL     OW14777  10.192   0.086   3.807
  167SOL    HW114778  10.288   0.097   3.802
  167SOL    HW214779  10.179   0.016   3.869
  167SOL     MW14780  10.202   0.079   3.814
  168SOL     OW14781  12.181   3.103   5.818
  168SOL    HW114782  12.127   3.041   5.869
  168SOL    HW214783  12.262   3.057   5.803
  168SOL     MW14784  12.184   3.090   5.822
  169SOL     OW14785  10.704   3.414   5.125
  169SOL    HW114786  10.771   3.461   5.075
  169SOL    HW214787  10.623   3.460   5.104
  169SOL     MW14788  10.703   3.425   5.116
  170SOL     OW14789  13.124   3.423   6.138
  170SOL    HW114790  13.119   3.461   6.049
  170SOL    HW214791  13.050   3.460   6.184
  170SOL     MW14792  13.115   3.432   6.133
  171SOL     OW14793  12.791   0.778   3.349
  171SOL    HW114794  12.787   0.808   3.441
  171SOL    HW214795  12.815   0.687   3.355
  171SOL     MW14796  12.793   0.771   3.361
  172SOL     OW14797  12.776   2.835   4.129
  172SOL    HW114798  12.746   2.895   4.198
  172SOL    HW214799  12.828   2.889   4.072
  172SOL     MW14800  12.778   2.849   4.130
  173SOL     OW14801  11.523   0.073   4.628
  173SOL    HW114802  11.451   0.091   4.566
  173SOL    HW214803  11.493   0.109   4.710
  173SOL     MW14804  11.511   0.080   4.630
  174SOL     OW14805  13.340   2.253   4.704
  174SOL    HW114806  13.274   2.268   4.772
  174SOL    HW214807  13.294   2.268   4.622
  174SOL     MW14808  13.327   2.257   4.702
  175SOL     OW14809  12.306   0.090   4.240
  175SOL    HW114810  12.357   0.051   4.311
  175SOL    HW214811  12.219   0.054   4.252
  175SOL     MW14812  12.302   0.081   4.250
  176SOL     OW14813  10.947   2.983   4.073
  176SOL    HW114814  10.961   2.994   3.978
  176SOL    HW214815  10.868   2.930   4.079
  176SOL     MW14816  10.939   2.978   4.062
  177SOL     OW14817  10.840   2.669   3.257
  177SOL    HW114818  10.875   2.645   3.171
  177SOL    HW214819  10.907   2.726   3.294
  177SOL     MW14820  10.852   2.673   3.251
  178SOL     OW14821  11.969   0.268   5.674
  178SOL    HW114822  11.966   0.176   5.702
  178SOL    HW214823  11.899   0.274   5.610
  178SOL     MW14824  11.960   0.258   5.670
  179SOL     OW14825  12.950   1.019   5.566
  179SOL    HW114826  13.031   0.978   5.536
  179SOL    HW214827  12.888   1.003   5.496
  179SOL     MW14828  12.952   1.012   5.554
  180SOL     OW14829  10.852   1.400   3.193
  180SOL    HW114830  10.904   1.359   3.262
  180SOL    HW214831  10.795   1.331   3.162
  180SOL     MW14832  10.852   1.387   3.198
  181SOL     OW14833  11.842   0.378   6.243
  181SOL    HW114834  11.783   0.410   6.174
  181SOL    HW214835  11.846   0.450   6.305
  181SOL     MW14836  11.835   0.391   6.242
  182SOL     OW14837  10.919   2.642   5.389
  182SOL    HW114838  10.932   2.723   5.339
  182SOL    HW214839  10.895   2.577   5.324
  182SOL     MW14840  10.918   2.644   5.376
  183SOL     OW14841  12.673   1.293   4.851
  183SOL    HW114842  12.769   1.295   4.846
  183SOL    HW214843  12.654   1.217   4.905
  183SOL     MW14844  12.682   1.284   4.857
  184SOL     OW14845  12.864   2.964   6.410
  184SOL    HW114846  12.939   2.909   6.385
  184SOL    HW214847  12.868   3.037   6.350
  184SOL     MW14848  12.874   2.966   6.400
  185SOL     OW14849  11.189   0.150   4.418
  185SOL    HW114850  11.275   0.169   4.458
  185SOL    HW214851  11.201   0.066   4.376
  185SOL     MW14852  11.201   0.142   4.418
  186SOL     OW14853  12.122   1.041   4.583
  186SOL    HW114854  12.209   1.068   4.553
  186SOL    HW214855  12.111   1.086   4.666
  186SOL     MW14856  12.132   1.050   4.589
  187SOL     OW14857  11.989   2.018   6.013
  187SOL    HW114858  11.922   2.015   5.944
  187SOL    HW214859  12.002   1.927   6.037
  187SOL     MW14860  11.982   2.007   6.008
  188SOL     OW14861  11.029   2.340   3.816
  188SOL    HW114862  11.099   2.406   3.821
  188SOL    HW214863  11.057   2.272   3.876
  188SOL     MW14864  11.041   2.340   3.824
  189SOL     OW14865  10.616   0.921   4.755
  189SOL    HW114866  10.568   1.003   4.742
  189SOL    HW214867  10.696   0.933   4.706
  189SOL     MW14868  10.620   0.932   4.747
  190SOL     OW14869  12.102   2.203   6.372
  190SOL    HW114870  12.028   2.232   6.426
  190SOL    HW214871  12.160   2.278   6.369
  190SOL     MW14872  12.100   2.216   6.378
  191SOL     OW14873  11.484   1.329   3.346
  191SOL    HW114874  11.415   1.263   3.332
  191SOL    HW214875  11.510   1.316   3.436
  191SOL     MW14876  11.479   1.319   3.355
  192SOL     OW14877  11.825   2.277   3.142
  192SOL    HW114878  11.760   2.254   3.075
  192SOL    HW214879  11.784   2.348   3.191
  192SOL     MW14880  11.812   2.283   3.140
  193SOL     OW14881  11.367   0.159   3.336
  193SOL    HW114882  11.449   0.154   3.285
  193SOL    HW214883  11.338   0.249   3.325
  193SOL     MW14884  11.373   0.169   3.328
  194SOL     OW14885  11.450   3.047   4.588
  194SOL    HW114886  11.486   3.105   4.520
  194SOL    HW214887  11.356   3.059   4.582
  194SOL     MW14888  11.444   3.055   4.579
  195SOL     OW14889  10.610   1.833   5.628
  195SOL    HW114890  10.558   1.828   5.546
  195SOL    HW214891  10.646   1.920   5.627
  195SOL     MW14892  10.608   1.842   5.618
  196SOL     OW14893  11.041   0.791   4.178
  196SOL    HW114894  11.057   0.876   4.135
  196SOL    HW214895  11.123   0.772   4.221
  196SOL     MW14896  11.053   0.799   4.178
  197SOL     OW14897  12.142   1.061   5.073
  197SOL    HW114898  12.168   1.151   5.092
  197SOL    HW214899  12.133   1.059   4.978
  197SOL     MW14900  12.145   1.071   5.064
  198SOL     OW14901  12.540   2.699   3.481
  198SOL    HW114902  12.498   2.728   3.399
  198SOL    HW214903  12.484   2.628   3.511
  198SOL     MW14904  12.528   2.694   3.474
  199SOL     OW14905  11.388   0.420   4.431
  199SOL    HW114906  11.372   0.510   4.399
  199SOL    HW214907  11.302   0.388   4.454
  199SOL     MW14908  11.376   0.427   4.430
  200SOL     OW14909  11.394   3.340   5.995
  200SOL    HW114910  11.416   3.253   6.030
  200SOL    HW214911  11.326   3.372   6.054
  200SOL     MW14912  11.389   3.333   6.007
  201SOL     OW14913  12.905   2.058   3.910
  201SOL    HW114914  12.824   2.072   3.860
  201SOL    HW214915  12.930   1.969   3.891
  201SOL     MW14916  12.898   2.049   3.901
  202SOL     OW14917  10.223   0.241   3.971
  202SOL    HW114918  10.268   0.323   3.951
  202SOL    HW214919  10.134   0.266   3.988
  202SOL     MW14920  10.218   0.254   3.971
  203SOL     OW14921  10.609   2.017   3.339
  203SOL    HW114922  10.526   2.056   3.369
  203SOL    HW214923  10.653   1.990   3.418
  203SOL     MW14924  10.604   2.018   3.352
  204SOL     OW14925  11.544   1.720   6.093
  204SOL    HW114926  11.620   1.694   6.039
  204SOL    HW214927  11.536   1.813   6.079
  204SOL     MW14928  11.552   1.728   6.085
  205SOL     OW14929  11.775   0.983   3.248
  205SOL    HW114930  11.725   0.956   3.326
  205SOL    HW214931  11.859   0.941   3.260
  205SOL     MW14932  11.779   0.975   3.259
  206SOL     OW14933  10.341   2.538   3.396
  206SOL    HW114934  10.321   2.517   3.487
  206SOL    HW214935  10.347   2.453   3.353
  206SOL     MW14936  10.339   2.525   3.402
  207SOL     OW14937  12.684   2.283   4.679
  207SOL    HW114938  12.613   2.303   4.617
  207SOL    HW214939  12.708   2.194   4.660
  207SOL     MW14940  12.678   2.275   4.669
  208SOL     OW14941  11.464   2.003   5.353
  208SOL    HW114942  11.417   2.006   5.437
  208SOL    HW214943  11.395   1.990   5.289
  208SOL     MW14944  11.450   2.002   5.356
  209SOL     OW14945  12.664   2.711   3.984
  209SOL    HW114946  12.734   2.700   3.919
  209SOL    HW214947  12.631   2.799   3.967
  209SOL     MW14948  12.668   2.720   3.974
  210SOL     OW14949  10.818   1.451   5.386
  210SOL    HW114950  10.809   1.547   5.377
  210SOL    HW214951  10.776   1.432   5.469
  210SOL     MW14952  10.812   1.461   5.395
  211SOL     OW14953  12.868   1.386   5.460
  211SOL    HW114954  12.935   1.413   5.396
  211SOL    HW214955  12.802   1.342   5.407
  211SOL     MW14956  12.868   1.384   5.446
  212SOL     OW14957  10.510   1.034   5.519
  212SOL    HW114958  10.444   0.964   5.526
  212SOL    HW214959  10.539   1.030   5.429
  212SOL     MW14960  10.505   1.025   5.509
  213SOL     OW14961  12.983   1.984   3.678
  213SOL    HW114962  12.978   1.923   3.604
  213SOL    HW214963  13.064   2.030   3.664
  213SOL     MW14964  12.992   1.982   3.667
  214SOL     OW14965  12.000   3.179   5.556
  214SOL    HW114966  11.950   3.152   5.478
  214SOL    HW214967  12.015   3.098   5.603
  214SOL     MW14968  11.995   3.166   5.552
  215SOL     OW14969  12.430   2.710   3.190
  215SOL    HW114970  12.348   2.702   3.240
  215SOL    HW214971  12.408   2.771   3.120
  215SOL     MW14972  12.417   2.717   3.188
  216SOL     OW14973  11.928   0.338   4.918
  216SOL    HW114974  11.894   0.249   4.902
  216SOL    HW214975  11.977   0.330   4.998
  216SOL     MW14976  11.930   0.326   4.925
  217SOL     OW14977  11.340   0.639   4.825
  217SOL    HW114978  11.330   0.732   4.851
  217SOL    HW214979  11.283   0.592   4.885
  217SOL     MW14980  11.332   0.645   4.835
  218SOL     OW14981  11.843   0.109   5.881
  218SOL    HW114982  11.748   0.120   5.885
  218SOL    HW214983  11.855   0.023   5.842
  218SOL     MW14984  11.833   0.100   5.877
  219SOL     OW14985  12.060   2.193   5.107
  219SOL    HW114986  12.112   2.261   5.062
  219SOL    HW214987  12.060   2.120   5.047
  219SOL     MW14988  12.066   2.193   5.094
  220SOL     OW14989  12.537   0.974   3.505
  220SOL    HW114990  12.630   0.950   3.501
  220SOL    HW214991  12.491   0.892   3.499
  220SOL     MW14992  12.543   0.961   3.504
  221SOL     OW14993  10.260   0.758   3.969
  221SOL    HW114994  10.306   0.675   3.950
  221SOL    HW214995  10.179   0.731   4.011
  221SOL     MW14996  10.256   0.744   3.972
  222SOL     OW14997  10.412   0.279   4.781
  222SOL    HW114998  10.383   0.202   4.832
  222SOL    HW214999  10.468   0.242   4.714
  222SOL     MW15000  10.415   0.265   4.780
  223SOL     OW15001  11.328   2.053   5.841
  223SOL    HW115002  11.313   2.089   5.753
  223SOL    HW215003  11.397   2.107   5.877
  223SOL     MW15004  11.335   2.064   5.834
  224SOL     OW15005  10.163   0.509   4.005
  224SOL    HW115006  10.097   0.519   4.074
  224SOL    HW215007  10.118   0.533   3.925
  224SOL     MW15008  10.150   0.513   4.004
  225SOL     OW15009  12.023   2.245   3.232
  225SOL    HW115010  12.058   2.302   3.163
  225SOL    HW215011  12.098   2.200   3.267
  225SOL     MW15012  12.036   2.247   3.228
  226SOL     OW15013  11.688   2.306   6.186
  226SOL    HW115014  11.643   2.364   6.123
  226SOL    HW215015  11.658   2.219   6.164
  226SOL     MW15016  11.679   2.303   6.176
  227SOL     OW15017  13.168   2.507   4.784
  227SOL    HW115018  13.086   2.554   4.802
  227SOL    HW215019  13.233   2.552   4.837
  227SOL     MW15020  13.166   2.518   4.792
  228SOL     OW15021  12.877   3.116   4.373
  228SOL    HW115022  12.817   3.066   4.316
  228SOL    HW215023  12.962   3.103   4.335
  228SOL     MW15024  12.880   3.109   4.361
  229SOL     OW15025  12.906   0.451   3.924
  229SOL    HW115026  12.895   0.523   3.862
  229SOL    HW215027  12.833   0.392   3.906
  229SOL     MW15028  12.896   0.452   3.914
  230SOL     OW15029  12.070   0.944   3.930
  230SOL    HW115030  12.120   0.990   3.862
  230SOL    HW215031  11.980   0.969   3.915
  230SOL     MW15032  12.066   0.952   3.920
  231SOL     OW15033  12.306   1.353   5.936
  231SOL    HW115034  12.245   1.427   5.942
  231SOL    HW215035  12.313   1.321   6.024
  231SOL     MW15036  12.300   1.358   5.947
  232SOL     OW15037  10.780   2.888   6.295
  232SOL    HW115038  10.780   2.927   6.383
  232SOL    HW215039  10.854   2.927   6.252
  232SOL     MW15040  10.789   2.897   6.301
  233SOL     OW15041  12.445   3.045   3.393
  233SOL    HW115042  12.499   3.010   3.322
  233SOL    HW215043  12.509   3.073   3.458
  233SOL     MW15044  12.459   3.044   3.392
  234SOL     OW15045  11.693   0.831   6.067
  234SOL    HW115046  11.741   0.783   6.135
  234SOL    HW215047  11.627   0.879   6.115
  234SOL     MW15048  11.691   0.831   6.081
  235SOL     OW15049  12.408   0.493   3.993
  235SOL    HW115050  12.453   0.483   4.078
  235SOL    HW215051  12.337   0.431   3.997
  235SOL     MW15052  12.405   0.485   4.004
  236SOL     OW15053  10.321   1.466   6.510
  236SOL    HW115054  10.226   1.459   6.497
  236SOL    HW215055  10.358   1.408   6.445
  236SOL     MW15056  10.314   1.458   6.501
  237SOL     OW15057  11.891   3.320   4.122
  237SOL    HW115058  11.865   3.358   4.207
  237SOL    HW215059  11.944   3.387   4.082
  237SOL     MW15060  11.894   3.332   4.128
  238SOL     OW15061  11.123   0.131   5.998
  238SOL    HW115062  11.198   0.112   6.056
  238SOL    HW215063  11.059   0.064   6.020
  238SOL     MW15064  11.124   0.121   6.008
  239SOL     OW15065  13.225   1.730   3.480
  239SOL    HW115066  13.222   1.670   3.405
  239SOL    HW215067  13.300   1.786   3.462
  239SOL     MW15068  13.233   1.730   3.469
  240SOL     OW15069  11.003   2.164   4.347
  240SOL    HW115070  10.989   2.255   4.376
  240SOL    HW215071  11.066   2.172   4.277
  240SOL     MW15072  11.009   2.176   4.342
  241SOL     OW15073  13.298   3.366   4.072
  241SOL    HW115074  13.217   3.401   4.034
  241SOL    HW215075  13.323   3.295   4.014
  241SOL     MW15076  13.291   3.362   4.060
  242SOL     OW15077  11.229   1.593   5.743
  242SOL    HW115078  11.234   1.624   5.652
  242SOL    HW215079  11.236   1.498   5.735
  242SOL     MW15080  11.231   1.586   5.731
  243SOL     OW15081  12.034   2.587   4.374
  243SOL    HW115082  12.103   2.600   4.308
  243SOL    HW215083  12.033   2.668   4.423
  243SOL     MW15084  12.042   2.598   4.372
  244SOL     OW15085  10.340   1.024   4.367
  244SOL    HW115086  10.418   1.071   4.399
  244SOL    HW215087  10.338   0.944   4.418
  244SOL     MW15088  10.349   1.020   4.377
  245SOL     OW15089  13.263   1.346   3.150
  245SOL    HW115090  13.342   1.352   3.204
  245SOL    HW215091  13.194   1.322   3.211
  245SOL     MW15092  13.264   1.344   3.164
  246SOL     OW15093  10.528   1.467   3.191
  246SOL    HW115094  10.462   1.442   3.125
  246SOL    HW215095  10.611   1.459   3.146
  246SOL     MW15096  10.529   1.463   3.178
  247SOL     OW15097  11.395   1.266   5.523
  247SOL    HW115098  11.321   1.217   5.484
  247SOL    HW215099  11.472   1.220   5.492
  247SOL     MW15100  11.395   1.255   5.515
  248SOL     OW15101  10.187   3.207   5.472
  248SOL    HW115102  10.269   3.159   5.455
  248SOL    HW215103  10.177   3.263   5.396
  248SOL     MW15104  10.196   3.207   5.461
  249SOL     OW15105  11.402   2.837   5.994
  249SOL    HW115106  11.408   2.817   5.899
  249SOL    HW215107  11.433   2.926   6.000
  249SOL     MW15108  11.406   2.845   5.983
  250SOL     OW15109  10.349   2.164   4.132
  250SOL    HW115110  10.403   2.243   4.139
  250SOL    HW215111  10.263   2.197   4.109
  250SOL     MW15112  10.345   2.177   4.130
  251SOL     OW15113  10.939   1.507   3.750
  251SOL    HW115114  10.951   1.569   3.677
  251SOL    HW215115  10.887   1.437   3.712
  251SOL     MW15116  10.934   1.506   3.736
  252SOL     OW15117  12.501   1.358   3.632
  252SOL    HW115118  12.522   1.268   3.659
  252SOL    HW215119  12.567   1.378   3.567
  252SOL     MW15120  12.511   1.349   3.628
  253SOL     OW15121  10.269   2.063   5.939
  253SOL    HW115122  10.236   1.974   5.924
  253SOL    HW215123  10.225   2.091   6.018
  253SOL     MW15124  10.260   2.056   5.947
  254SOL     OW15125  10.196   2.339   6.006
  254SOL    HW115126  10.141   2.283   5.951
  254SOL    HW215127  10.283   2.330   5.971
  254SOL     MW15128  10.200   2.331   5.995
  255SOL     OW15129  13.292   1.490   5.006
  255SOL    HW115130  13.340   1.415   4.970
  255SOL    HW215131  13.341   1.514   5.084
  255SOL     MW15132  13.304   1.484   5.011
  256SOL     OW15133  12.385   3.126   3.116
  256SOL    HW115134  12.430   3.044   3.092
  256SOL    HW215135  12.446   3.194   3.092
  256SOL     MW15136  12.398   3.124   3.111
  257SOL     OW15137  10.588   3.209   4.901
  257SOL    HW115138  10.655   3.215   4.832
  257SOL    HW215139  10.561   3.299   4.914
  257SOL     MW15140  10.593   3.220   4.894
  258SOL     OW15141  11.111   2.414   5.701
  258SOL    HW115142  11.144   2.336   5.656
  258SOL    HW215143  11.178   2.435   5.764
  258SOL     MW15144  11.123   2.407   5.703
  259SOL     OW15145  10.112   2.091   4.742
  259SOL    HW115146  10.182   2.136   4.692
  259SOL    HW215147  10.032   2.128   4.707
  259SOL     MW15148  10.111   2.101   4.732
  260SOL     OW15149  10.792   2.447   5.006
  260SOL    HW115150  10.793   2.377   4.940
  260SOL    HW215151  10.870   2.498   4.988
  260SOL     MW15152  10.801   2.444   4.996
  261SOL     OW15153  12.161   1.413   6.392
  261SOL    HW115154  12.210   1.361   6.327
  261SOL    HW215155  12.185   1.503   6.373
  261SOL     MW15156  12.170   1.417   6.382
  262SOL     OW15157  12.203   3.320   5.203
  262SOL    HW115158  12.162   3.330   5.289
  262SOL    HW215159  12.277   3.380   5.205
  262SOL     MW15160  12.207   3.329   5.214
  263SOL     OW15161  11.546   2.047   3.472
  263SOL    HW115162  11.619   2.038   3.534
  263SOL    HW215163  11.528   2.140   3.471
  263SOL     MW15164  11.553   2.057   3.480
  264SOL     OW15165  10.142   0.426   5.711
  264SOL    HW115166  10.097   0.505   5.678
  264SOL    HW215167  10.117   0.358   5.650
  264SOL     MW15168  10.133   0.428   5.700
  265SOL     OW15169  10.765   0.521   3.394
  265SOL    HW115170  10.804   0.586   3.335
  265SOL    HW215171  10.783   0.554   3.481
  265SOL     MW15172  10.772   0.533   3.398
  266SOL     OW15173  12.248   1.686   5.407
  266SOL    HW115174  12.241   1.667   5.313
  266SOL    HW215175  12.327   1.640   5.434
  266SOL     MW15176  12.257   1.678   5.399
  267SOL     OW15177  10.275   0.150   3.186
  267SOL    HW115178  10.182   0.145   3.162
  267SOL    HW215179  10.296   0.243   3.181
  267SOL     MW15180  10.266   0.160   3.182
  268SOL     OW15181  12.187   1.039   5.784
  268SOL    HW115182  12.207   0.957   5.831
  268SOL    HW215183  12.248   1.041   5.712
  268SOL     MW15184  12.197   1.030   5.781
  269SOL     OW15185  12.891   0.824   3.824
  269SOL    HW115186  12.941   0.815   3.907
  269SOL    HW215187  12.856   0.738   3.809
  269SOL     MW15188  12.893   0.813   3.832
  270SOL     OW15189  10.458   2.991   5.403
  270SOL    HW115190  10.494   2.905   5.378
  270SOL    HW215191  10.378   2.999   5.353
  270SOL     MW15192  10.453   2.981   5.394
  271SOL     OW15193  13.197   2.030   4.364
  271SOL    HW115194  13.116   2.045   4.315
  271SOL    HW215195  13.259   2.092   4.326
  271SOL     MW15196  13.195   2.040   4.354
  272SOL     OW15197  11.454   0.562   3.384
  272SOL    HW115198  11.538   0.531   3.420
  272SOL    HW215199  11.478   0.608   3.304
  272SOL     MW15200  11.467   0.563   3.379
  273SOL     OW15201  12.056   0.090   5.463
  273SOL    HW115202  11.999   0.046   5.527
  273SOL    HW215203  12.016   0.176   5.451
  273SOL     MW15204  12.044   0.095   5.469
  274SOL     OW15205  12.154   2.953   3.332
  274SOL    HW115206  12.164   2.872   3.279
  274SOL    HW215207  12.098   2.926   3.404
  274SOL     MW15208  12.149   2.940   3.334
  275SOL     OW15209  12.041   0.943   4.403
  275SOL    HW115210  12.031   0.989   4.319
  275SOL    HW215211  11.983   0.868   4.396
  275SOL     MW15212  12.033   0.940   4.392
  276SOL     OW15213  11.772   2.487   3.773
  276SOL    HW115214  11.783   2.465   3.680
  276SOL    HW215215  11.858   2.470   3.811
  276SOL     MW15216  11.783   2.482   3.766
  277SOL     OW15217  10.564   2.627   3.346
  277SOL    HW115218  10.554   2.583   3.261
  277SOL    HW215219  10.626   2.697   3.328
  277SOL     MW15220  10.570   2.630   3.334
  278SOL     OW15221  11.577   1.406   5.657
  278SOL    HW115222  11.667   1.380   5.632
  278SOL    HW215223  11.536   1.324   5.681
  278SOL     MW15224  11.583   1.393   5.657
  279SOL     OW15225  10.438   0.985   6.376
  279SOL    HW115226  10.472   1.069   6.410
  279SOL    HW215227  10.372   1.012   6.312
  279SOL     MW15228  10.434   0.999   6.372
  280SOL     OW15229  12.593   1.891   3.495
  280SOL    HW115230  12.559   1.818   3.547
  280SOL    HW215231  12.519   1.949   3.485
  280SOL     MW15232  12.580   1.889   3.500
  281SOL     OW15233  11.176   0.782   6.489
  281SOL    HW115234  11.158   0.874   6.510
  281SOL    HW215235  11.096   0.737   6.511
  281SOL     MW15236  11.165   0.788   6.495
  282SOL     OW15237  11.933   0.855   5.945
  282SOL    HW115238  12.024   0.883   5.928
  282SOL    HW215239  11.927   0.853   6.040
  282SOL     MW15240  11.943   0.859   5.954
  283SOL     OW15241  11.758   1.015   6.317
  283SOL    HW115242  11.696   1.083   6.289
  283SOL    HW215243  11.813   1.001   6.241
  283SOL     MW15244  11.757   1.022   6.304
  284SOL     OW15245  11.166   1.874   5.223
  284SOL    HW115246  11.111   1.796   5.212
  284SOL    HW215247  11.127   1.938   5.166
  284SOL     MW15248  11.154   1.872   5.215
  285SOL     OW15249  13.205   2.193   3.532
  285SOL    HW115250  13.240   2.159   3.615
  285SOL    HW215251  13.114   2.212   3.551
  285SOL     MW15252  13.199   2.191   3.544
  286SOL     OW15253  10.646   2.936   3.718
  286SOL    HW115254  10.695   2.854   3.732
  286SOL    HW215255  10.705   3.004   3.747
  286SOL     MW15256  10.659   2.934   3.723
  287SOL     OW15257  12.661   0.294   5.972
  287SOL    HW115258  12.640   0.290   6.065
  287SOL    HW215259  12.746   0.252   5.965
  287SOL     MW15260  12.668   0.289   5.982
  288SOL     OW15261  12.881   0.556   5.612
  288SOL    HW115262  12.938   0.605   5.552
  288SOL    HW215263  12.795   0.593   5.598
  288SOL     MW15264  12.878   0.566   5.603
  289SOL     OW15265  10.624   2.313   4.102
  289SOL    HW115266  10.691   2.314   4.033
  289SOL    HW215267  10.580   2.396   4.093
  289SOL     MW15268  10.627   2.323   4.092
  290SOL     OW15269  12.727   1.336   5.130
  290SOL    HW115270  12.659   1.269   5.120
  290SOL    HW215271  12.796   1.292   5.179
  290SOL     MW15272  12.727   1.322   5.135
  291SOL     OW15273  11.456   1.165   5.907
  291SOL    HW115274  11.457   1.130   5.817
  291SOL    HW215275  11.367   1.148   5.937
  291SOL     MW15276  11.445   1.159   5.899
  292SOL     OW15277  13.296   3.119   6.327
  292SOL    HW115278  13.308   3.181   6.400
  292SOL    HW215279  13.240   3.052   6.363
  292SOL     MW15280  13.291   3.119   6.340
  293SOL     OW15281  11.948   1.101   3.418
  293SOL    HW115282  11.881   1.042   3.454
  293SOL    HW215283  11.956   1.170   3.483
  293SOL     MW15284  11.941   1.102   3.430
  294SOL     OW15285  12.029   0.644   5.880
  294SOL    HW115286  12.038   0.551   5.904
  294SOL    HW215287  12.078   0.652   5.799
  294SOL     MW15288  12.036   0.633   5.874
  295SOL     OW15289  11.517   1.700   5.618
  295SOL    HW115290  11.603   1.742   5.626
  295SOL    HW215291  11.528   1.640   5.544
  295SOL     MW15292  11.529   1.698   5.610
  296SOL     OW15293  10.698   2.112   3.661
  296SOL    HW115294  10.760   2.174   3.701
  296SOL    HW215295  10.632   2.098   3.727
  296SOL     MW15296  10.698   2.118   3.674
  297SOL     OW15297  12.931   2.198   6.237
  297SOL    HW115298  12.857   2.194   6.298
  297SOL    HW215299  12.973   2.281   6.257
  297SOL     MW15300  12.927   2.208   6.247
  298SOL     OW15301  11.602   1.253   6.046
  298SOL    HW115302  11.613   1.182   6.110
  298SOL    HW215303  11.528   1.303   6.077
  298SOL     MW15304  11.595   1.250   6.057
  299SOL     OW15305  10.136   2.093   3.857
  299SOL    HW115306  10.139   2.077   3.762
  299SOL    HW215307  10.164   2.011   3.896
  299SOL     MW15308  10.140   2.081   3.850
  300SOL     OW15309  10.344   2.291   4.429
  300SOL    HW115310  10.277   2.228   4.402
  300SOL    HW215311  10.391   2.311   4.349
  300SOL     MW15312  10.342   2.286   4.416
  301SOL     OW15313  13.303   2.561   3.135
  301SOL    HW115314  13.340   2.506   3.065
  301SOL    HW215315  13.262   2.633   3.089
  301SOL     MW15316  13.303   2.563   3.121
  302SOL     OW15317  11.949   3.249   5.058
  302SOL    HW115318  11.867   3.262   5.107
  302SOL    HW215319  12.010   3.310   5.098
  302SOL     MW15320  11.946   3.258   5.069
  303SOL     OW15321  11.903   1.142   5.682
  303SOL    HW115322  11.955   1.078   5.731
  303SOL    HW215323  11.850   1.185   5.748
  303SOL     MW15324  11.903   1.139   5.696
  304SOL     OW15325  12.563   2.089   5.239
  304SOL    HW115326  12.648   2.132   5.229
  304SOL    HW215327  12.516   2.144   5.300
  304SOL     MW15328  12.568   2.101   5.245
  305SOL     OW15329  11.793   2.754   4.678
  305SOL    HW115330  11.776   2.816   4.606
  305SOL    HW215331  11.749   2.675   4.652
  305SOL     MW15332  11.786   2.753   4.666
  306SOL     OW15333  10.550   0.415   4.909
  306SOL    HW115334  10.463   0.409   4.951
  306SOL    HW215335  10.568   0.508   4.907
  306SOL     MW15336  10.541   0.425   4.914
  307SOL     OW15337  12.710   0.748   6.214
  307SOL    HW115338  12.680   0.672   6.265
  307SOL    HW215339  12.726   0.714   6.128
  307SOL     MW15340  12.708   0.735   6.210
  308SOL     OW15341  12.221   1.311   3.316
  308SOL    HW115342  12.181   1.370   3.380
  308SOL    HW215343  12.314   1.314   3.336
  308SOL     MW15344  12.227   1.319   3.326
  309SOL     OW15345  11.307   2.196   5.458
  309SOL    HW115346  11.300   2.177   5.552
  309SOL    HW215347  11.316   2.290   5.453
  309SOL     MW15348  11.307   2.204   5.469
  310SOL     OW15349  10.519   2.836   5.868
  310SOL    HW115350  10.535   2.805   5.958
  310SOL    HW215351  10.459   2.908   5.878
  310SOL     MW15352  10.514   2.841   5.881
  311SOL     OW15353  11.844   1.316   4.181
  311SOL    HW115354  11.768   1.315   4.240
  311SOL    HW215355  11.835   1.237   4.130
  311SOL     MW15356  11.834   1.307   4.182
  312SOL     OW15357  10.707   0.512   5.515
  312SOL    HW115358  10.675   0.434   5.561
  312SOL    HW215359  10.646   0.581   5.540
  312SOL     MW15360  10.696   0.511   5.524
  313SOL     OW15361  10.221   2.494   5.451
  313SOL    HW115362  10.167   2.415   5.464
  313SOL    HW215363  10.308   2.467   5.476
  313SOL     MW15364  10.224   2.481   5.455
  314SOL     OW15365  13.056   1.209   3.956
  314SOL    HW115366  13.132   1.182   3.905
  314SOL    HW215367  12.987   1.150   3.930
  314SOL     MW15368  13.057   1.199   3.947
  315SOL     OW15369  10.367   2.221   6.511
  315SOL    HW115370  10.280   2.254   6.490
  315SOL    HW215371  10.426   2.291   6.487
  315SOL     MW15372  10.364   2.233   6.506
  316SOL     OW15373  11.557   2.162   4.075
  316SOL    HW115374  11.501   2.236   4.050
  316SOL    HW215375  11.640   2.180   4.032
  316SOL     MW15376  11.560   2.174   4.067
  317SOL     OW15377  10.715   2.664   6.108
  317SOL    HW115378  10.680   2.620   6.030
  317SOL    HW215379  10.794   2.615   6.129
  317SOL     MW15380  10.720   2.653   6.101
  318SOL     OW15381  12.316   0.464   3.567
  318SOL    HW115382  12.231   0.507   3.578
  318SOL    HW215383  12.373   0.532   3.537
  318SOL     MW15384  12.312   0.477   3.565
  319SOL     OW15385  11.528   1.014   3.671
  319SOL    HW115386  11.553   1.063   3.749
  319SOL    HW215387  11.479   0.939   3.704
  319SOL     MW15388  11.525   1.011   3.684
  320SOL     OW15389  11.006   0.204   5.365
  320SOL    HW115390  11.024   0.265   5.437
  320SOL    HW215391  10.976   0.125   5.408
  320SOL     MW15392  11.005   0.202   5.379
  321SOL     OW15393  10.897   2.364   5.712
  321SOL    HW115394  10.824   2.330   5.659
  321SOL    HW215395  10.937   2.286   5.749
  321SOL     MW15396  10.892   2.350   5.710
  322SOL     OW15397  10.650   3.332   3.139
  322SOL    HW115398  10.609   3.253   3.177
  322SOL    HW215399  10.743   3.319   3.154
  322SOL     MW15400  10.656   3.320   3.145
  323SOL     OW15401  13.064   0.105   3.640
  323SOL    HW115402  12.985   0.151   3.672
  323SOL    HW215403  13.123   0.106   3.715
  323SOL     MW15404  13.061   0.111   3.653
  324SOL     OW15405  10.063   1.082   5.813
  324SOL    HW115406  10.010   1.002   5.802
  324SOL    HW215407  10.067   1.095   5.907
  324SOL     MW15408  10.057   1.073   5.823
  325SOL     OW15409  12.696   0.506   3.313
  325SOL    HW115410  12.746   0.480   3.391
  325SOL    HW215411  12.610   0.528   3.347
  325SOL     MW15412  12.692   0.506   3.326
  326SOL     OW15413  10.644   0.203   5.873
  326SOL    HW115414  10.632   0.295   5.848
  326SOL    HW215415  10.638   0.156   5.791
  326SOL     MW15416  10.642   0.209   5.860
  327SOL     OW15417  12.805   0.297   4.368
  327SOL    HW115418  12.787   0.365   4.433
  327SOL    HW215419  12.898   0.280   4.377
  327SOL     MW15420  12.814   0.303   4.377
  328SOL     OW15421  10.477   2.653   4.300
  328SOL    HW115422  10.453   2.589   4.233
  328SOL    HW215423  10.571   2.643   4.309
  328SOL     MW15424  10.485   2.644   4.293
  329SOL     OW15425  10.819   0.628   5.365
  329SOL    HW115426  10.849   0.626   5.274
  329SOL    HW215427  10.774   0.711   5.373
  329SOL     MW15428  10.817   0.638   5.355
  330SOL     OW15429  13.096   2.006   4.084
  330SOL    HW115430  13.128   1.915   4.086
  330SOL    HW215431  13.011   2.002   4.126
  330SOL     MW15432  13.090   1.994   4.089
  331SOL     OW15433  10.927   1.931   4.668
  331SOL    HW115434  10.845   1.935   4.718
  331SOL    HW215435  10.977   2.004   4.699
  331SOL     MW15436  10.923   1.940   4.678
  332SOL     OW15437  12.122   0.914   3.284
  332SOL    HW115438  12.053   0.849   3.303
  332SOL    HW215439  12.116   0.975   3.356
  332SOL     MW15440  12.113   0.913   3.295
  333SOL     OW15441  10.918   1.358   3.915
  333SOL    HW115442  10.826   1.359   3.943
  333SOL    HW215443  10.965   1.391   3.990
  333SOL     MW15444  10.912   1.362   3.927
  334SOL     OW15445  12.352   0.191   3.900
  334SOL    HW115446  12.401   0.263   3.860
  334SOL    HW215447  12.415   0.147   3.955
  334SOL     MW15448  12.365   0.194   3.902
  335SOL     OW15449  10.041   2.067   5.595
  335SOL    HW115450  10.010   2.147   5.550
  335SOL    HW215451  10.123   2.047   5.551
  335SOL     MW15452  10.047   2.075   5.584
  336SOL     OW15453  11.020   1.640   5.535
  336SOL    HW115454  11.023   1.558   5.584
  336SOL    HW215455  10.940   1.682   5.564
  336SOL     MW15456  11.011   1.635   5.544
  337SOL     OW15457  12.673   0.084   4.965
  337SOL    HW115458  12.672   0.015   5.033
  337SOL    HW215459  12.713   0.158   5.008
  337SOL     MW15460  12.677   0.084   4.979
  338SOL     OW15461  10.687   3.048   3.170
  338SOL    HW115462  10.664   3.019   3.080
  338SOL    HW215463  10.778   3.072   3.164
  338SOL     MW15464  10.695   3.047   3.158
  339SOL     OW15465  13.161   0.742   5.304
  339SOL    HW115466  13.099   0.707   5.369
  339SOL    HW215467  13.161   0.836   5.320
  339SOL     MW15468  13.153   0.749   5.314
  340SOL     OW15469  10.526   0.074   4.108
  340SOL    HW115470  10.499   0.160   4.073
  340SOL    HW215471  10.537   0.020   4.031
  340SOL     MW15472  10.524   0.079   4.095
  341SOL     OW15473  13.048   0.488   6.093
  341SOL    HW115474  13.107   0.501   6.018
  341SOL    HW215475  12.996   0.567   6.096
  341SOL     MW15476  13.049   0.499   6.084
  342SOL     OW15477  10.062   2.245   5.290
  342SOL    HW115478  10.101   2.158   5.275
  342SOL    HW215479  10.102   2.300   5.224
  342SOL     MW15480  10.071   2.241   5.280
  343SOL     OW15481  12.140   0.834   5.390
  343SOL    HW115482  12.184   0.794   5.465
  343SOL    HW215483  12.071   0.773   5.369
  343SOL     MW15484  12.137   0.822   5.397
  344SOL     OW15485  10.246   2.237   4.993
  344SOL    HW115486  10.311   2.298   4.957
  344SOL    HW215487  10.187   2.221   4.920
  344SOL     MW15488  10.247   2.242   4.980
  345SOL     OW15489  10.220   2.127   3.277
  345SOL    HW115490  10.227   2.154   3.185
  345SOL    HW215491  10.307   2.142   3.312
  345SOL     MW15492  10.231   2.132   3.270
  346SOL     OW15493  10.988   0.127   4.214
  346SOL    HW115494  11.002   0.164   4.302
  346SOL    HW215495  11.071   0.084   4.194
  346SOL     MW15496  11.000   0.127   4.223
  347SOL     OW15497  11.680   1.023   4.084
  347SOL    HW115498  11.683   1.032   4.180
  347SOL    HW215499  11.681   0.930   4.068
  347SOL     MW15500  11.680   1.013   4.094
  348SOL     OW15501  10.748   1.541   5.904
  348SOL    HW115502  10.757   1.533   5.809
  348SOL    HW215503  10.834   1.570   5.934
  348SOL     MW15504  10.759   1.543   5.896
  349SOL     OW15505  10.457   2.755   6.202
  349SOL    HW115506  10.383   2.754   6.140
  349SOL    HW215507  10.507   2.678   6.180
  349SOL     MW15508  10.454   2.746   6.192
  350SOL     OW15509  11.489   0.328   5.469
  350SOL    HW115510  11.513   0.243   5.431
  350SOL    HW215511  11.572   0.375   5.475
  350SOL     MW15512  11.502   0.323   5.465
  351SOL     OW15513  11.275   2.187   3.710
  351SOL    HW115514  11.254   2.278   3.730
  351SOL    HW215515  11.296   2.187   3.617
  351SOL     MW15516  11.275   2.198   3.701
  352SOL     OW15517  10.331   2.506   5.261
  352SOL    HW115518  10.282   2.424   5.246
  352SOL    HW215519  10.330   2.550   5.177
  352SOL     MW15520  10.325   2.501   5.249
  353SOL     OW15521  13.022   1.628   5.069
  353SOL    HW115522  13.090   1.685   5.107
  353SOL    HW215523  13.003   1.566   5.139
  353SOL     MW15524  13.028   1.628   5.082
  354SOL     OW15525  11.618   0.698   4.794
  354SOL    HW115526  11.637   0.789   4.768
  354SOL    HW215527  11.550   0.706   4.859
  354SOL     MW15528  11.612   0.710   4.799
  355SOL     OW15529  12.703   1.718   4.534
  355SOL    HW115530  12.627   1.736   4.478
  355SOL    HW215531  12.754   1.655   4.485
  355SOL     MW15532  12.700   1.713   4.521
  356SOL     OW15533  12.963   3.399   5.130
  356SOL    HW115534  12.910   3.460   5.182
  356SOL    HW215535  13.052   3.420   5.155
  356SOL     MW15536  12.967   3.409   5.140
  357SOL     OW15537  11.234   1.418   5.475
  357SOL    HW115538  11.185   1.387   5.552
  357SOL    HW215539  11.306   1.468   5.512
  357SOL     MW15540  11.236   1.420   5.489
  358SOL     OW15541  13.034   2.230   3.861
  358SOL    HW115542  12.995   2.304   3.907
  358SOL    HW215543  13.111   2.208   3.913
  358SOL     MW15544  13.039   2.236   3.873
  359SOL     OW15545  11.728   1.849   6.280
  359SOL    HW115546  11.639   1.885   6.286
  359SOL    HW215547  11.723   1.785   6.211
  359SOL     MW15548  11.717   1.846   6.273
  360SOL     OW15549  12.204   2.218   3.766
  360SOL    HW115550  12.163   2.188   3.684
  360SOL    HW215551  12.215   2.312   3.753
  360SOL     MW15552  12.200   2.226   3.754
  361SOL     OW15553  12.583   0.275   5.217
  361SOL    HW115554  12.666   0.298   5.176
  361SOL    HW215555  12.519   0.329   5.172
  361SOL     MW15556  12.585   0.285   5.207
  362SOL     OW15557  13.185   0.777   6.101
  362SOL    HW115558  13.221   0.826   6.175
  362SOL    HW215559  13.192   0.686   6.128
  362SOL     MW15560  13.191   0.772   6.114
  363SOL     OW15561  10.047   2.829   5.963
  363SOL    HW115562  10.009   2.905   6.009
  363SOL    HW215563  10.123   2.806   6.014
  363SOL     MW15564  10.051   2.836   5.975
  364SOL     OW15565  12.199   3.190   3.449
  364SOL    HW115566  12.156   3.118   3.496
  364SOL    HW215567  12.250   3.147   3.382
  364SOL     MW15568  12.200   3.176   3.447
  365SOL     OW15569  12.802   3.340   4.194
  365SOL    HW115570  12.787   3.432   4.173
  365SOL    HW215571  12.715   3.303   4.201
  365SOL     MW15572  12.790   3.347   4.192
  366SOL     OW15573  10.883   1.397   4.776
  366SOL    HW115574  10.958   1.337   4.770
  366SOL    HW215575  10.816   1.356   4.722
  366SOL     MW15576  10.884   1.385   4.769
  367SOL     OW15577  10.818   2.035   5.731
  367SOL    HW115578  10.840   2.090   5.806
  367SOL    HW215579  10.779   2.095   5.668
  367SOL     MW15580  10.816   2.049   5.732
  368SOL     OW15581  11.775   0.499   4.287
  368SOL    HW115582  11.683   0.516   4.262
  368SOL    HW215583  11.782   0.405   4.286
  368SOL     MW15584  11.765   0.490   4.284
  369SOL     OW15585  11.571   1.619   3.410
  369SOL    HW115586  11.554   1.533   3.451
  369SOL    HW215587  11.648   1.651   3.454
  369SOL     MW15588  11.578   1.612   3.420
  370SOL     OW15589  10.211   2.773   6.349
  370SOL    HW115590  10.173   2.689   6.376
  370SOL    HW215591  10.304   2.763   6.365
  370SOL     MW15592  10.217   2.762   6.354
  371SOL     OW15593  12.373   2.043   3.960
  371SOL    HW115594  12.345   2.107   3.894
  371SOL    HW215595  12.300   1.984   3.967
  371SOL     MW15596  12.361   2.044   3.952
  372SOL     OW15597  10.152   1.360   5.071
  372SOL    HW115598  10.113   1.416   5.140
  372SOL    HW215599  10.082   1.349   5.008
  372SOL     MW15600  10.139   1.366   5.072
  373SOL     OW15601  10.442   2.973   4.295
  373SOL    HW115602  10.406   2.898   4.342
  373SOL    HW215603  10.418   3.048   4.348
  373SOL     MW15604  10.435   2.973   4.307
  374SOL     OW15605  10.605   0.999   3.297
  374SOL    HW115606  10.625   0.905   3.303
  374SOL    HW215607  10.678   1.035   3.248
  374SOL     MW15608  10.616   0.992   3.292
  375SOL     OW15609  11.831   0.839   3.523
  375SOL    HW115610  11.867   0.788   3.596
  375SOL    HW215611  11.819   0.775   3.454
  375SOL     MW15612  11.834   0.825   3.524
  376SOL     OW15613  10.389   1.000   5.746
  376SOL    HW115614  10.414   1.086   5.711
  376SOL    HW215615  10.309   0.979   5.700
  376SOL     MW15616  10.383   1.008   5.736
  377SOL     OW15617  12.985   3.313   4.619
  377SOL    HW115618  13.056   3.251   4.638
  377SOL    HW215619  12.923   3.299   4.689
  377SOL     MW15620  12.986   3.304   4.630
  378SOL     OW15621  12.135   0.325   3.684
  378SOL    HW115622  12.066   0.260   3.694
  378SOL    HW215623  12.208   0.289   3.733
  378SOL     MW15624  12.135   0.313   3.691
  379SOL     OW15625  10.839   1.134   3.606
  379SOL    HW115626  10.814   1.223   3.578
  379SOL    HW215627  10.932   1.129   3.587
  379SOL     MW15628  10.847   1.145   3.601
  380SOL     OW15629  10.500   0.719   4.760
  380SOL    HW115630  10.550   0.655   4.710
  380SOL    HW215631  10.409   0.700   4.739
  380SOL     MW15632  10.495   0.709   4.752
  381SOL     OW15633  10.583   3.266   4.314
  381SOL    HW115634  10.662   3.247   4.367
  381SOL    HW215635  10.601   3.226   4.230
  381SOL     MW15636  10.595   3.259   4.311
  382SOL     OW15637  12.591   1.519   3.799
  382SOL    HW115638  12.612   1.595   3.744
  382SOL    HW215639  12.497   1.510   3.792
  382SOL     MW15640  12.583   1.527   3.791
  383SOL     OW15641  11.012   1.664   4.409
  383SOL    HW115642  11.080   1.675   4.476
  383SOL    HW215643  10.963   1.745   4.412
  383SOL     MW15644  11.014   1.675   4.418
  384SOL     OW15645  11.816   0.055   4.506
  384SOL    HW115646  11.794   0.149   4.507
  384SOL    HW215647  11.735   0.012   4.531
  384SOL     MW15648  11.804   0.061   4.509
  385SOL     OW15649  12.576   0.680   4.668
  385SOL    HW115650  12.488   0.666   4.632
  385SOL    HW215651  12.627   0.712   4.594
  385SOL     MW15652  12.572   0.682   4.655
  386SOL     OW15653  12.381   1.105   6.369
  386SOL    HW115654  12.304   1.148   6.330
  386SOL    HW215655  12.372   1.014   6.344
  386SOL     MW15656  12.370   1.100   6.361
  387SOL     OW15657  10.021   3.369   6.281
  387SOL    HW115658  10.098   3.394   6.334
  387SOL    HW215659  10.039   3.279   6.256
  387SOL     MW15660  10.033   3.361   6.285
  388SOL     OW15661  11.080   3.246   3.302
  388SOL    HW115662  11.154   3.204   3.258
  388SOL    HW215663  11.030   3.285   3.231
  388SOL     MW15664  11.083   3.246   3.288
  389SOL     OW15665  11.713   3.036   4.051
  389SOL    HW115666  11.686   3.105   4.113
  389SOL    HW215667  11.772   3.080   3.991
  389SOL     MW15668  11.717   3.050   4.051
  390SOL     OW15669  13.238   2.383   5.572
  390SOL    HW115670  13.325   2.421   5.559
  390SOL    HW215671  13.255   2.291   5.589
  390SOL     MW15672  13.250   2.377   5.572
  391SOL     OW15673  11.894   1.779   6.406
  391SOL    HW115674  11.979   1.825   6.410
  391SOL    HW215675  11.847   1.812   6.482
  391SOL     MW15676  11.899   1.788   6.416
  392SOL     OW15677  13.062   3.224   6.211
  392SOL    HW115678  13.079   3.271   6.293
  392SOL    HW215679  13.083   3.134   6.231
  392SOL     MW15680  13.067   3.219   6.223
  393SOL     OW15681  10.495   1.439   4.665
  393SOL    HW115682  10.450   1.450   4.749
  393SOL    HW215683  10.495   1.526   4.627
  393SOL     MW15684  10.490   1.451   4.671
  394SOL     OW15685  11.037   1.565   3.114
  394SOL    HW115686  10.987   1.574   3.195
  394SOL    HW215687  11.127   1.559   3.143
  394SOL     MW15688  11.042   1.566   3.127
  395SOL     OW15689  11.281   2.444   3.487
  395SOL    HW115690  11.277   2.441   3.583
  395SOL    HW215691  11.318   2.529   3.467
  395SOL     MW15692  11.285   2.453   3.496
  396SOL     OW15693  12.991   2.228   4.256
  396SOL    HW115694  12.995   2.301   4.319
  396SOL    HW215695  13.073   2.233   4.209
  396SOL     MW15696  13.002   2.238   4.258
  397SOL     OW15697  11.057   2.572   6.399
  397SOL    HW115698  10.998   2.506   6.436
  397SOL    HW215699  11.116   2.523   6.344
  397SOL     MW15700  11.056   2.559   6.397
  398SOL     OW15701  10.709   0.517   5.793
  398SOL    HW115702  10.731   0.547   5.882
  398SOL    HW215703  10.746   0.583   5.736
  398SOL     MW15704  10.716   0.528   5.797
  399SOL     OW15705  12.238   1.952   3.050
  399SOL    HW115706  12.195   2.033   3.079
  399SOL    HW215707  12.302   1.934   3.116
  399SOL     MW15708  12.240   1.959   3.061
  400SOL     OW15709  12.222   0.809   4.458
  400SOL    HW115710  12.279   0.850   4.524
  400SOL    HW215711  12.196   0.726   4.497
  400SOL     MW15712  12.226   0.804   4.471
  401SOL     OW15713  11.005   0.957   5.581
  401SOL    HW115714  11.053   0.905   5.646
  401SOL    HW215715  10.913   0.938   5.598
  401SOL     MW15716  11.000   0.948   5.591
  402SOL     OW15717  13.108   1.857   4.488
  402SOL    HW115718  13.037   1.871   4.425
  402SOL    HW215719  13.085   1.775   4.530
  402SOL     MW15720  13.097   1.849   4.485
  403SOL     OW15721  12.935   2.996   6.132
  403SOL    HW115722  12.894   3.082   6.123
  403SOL    HW215723  13.002   2.995   6.064
  403SOL     MW15724  12.938   3.006   6.123
  404SOL     OW15725  11.865   1.699   5.659
  404SOL    HW115726  11.945   1.657   5.690
  404SOL    HW215727  11.795   1.648   5.699
  404SOL     MW15728  11.866   1.688   5.667
  405SOL     OW15729  10.300   2.020   5.263
  405SOL    HW115730  10.349   2.029   5.345
  405SOL    HW215731  10.245   1.944   5.278
  405SOL     MW15732  10.300   2.012   5.275
  406SOL     OW15733  12.172   0.289   3.392
  406SOL    HW115734  12.135   0.350   3.457
  406SOL    HW215735  12.263   0.281   3.416
  406SOL     MW15736  12.178   0.296   3.403
  407SOL     OW15737  10.278   0.048   3.510
  407SOL    HW115738  10.251   0.113   3.576
  407SOL    HW215739  10.371   0.037   3.525
  407SOL     MW15740  10.286   0.055   3.520
  408SOL     OW15741  12.020   2.463   4.694
  408SOL    HW115742  12.022   2.371   4.665
  408SOL    HW215743  12.011   2.457   4.788
  408SOL     MW15744  12.019   2.451   4.701
  409SOL     OW15745  10.084   3.197   6.056
  409SOL    HW115746  10.009   3.173   6.000
  409SOL    HW215747  10.094   3.290   6.044
  409SOL     MW15748  10.076   3.205   6.048
  410SOL     OW15749  13.341   3.098   4.604
  410SOL    HW115750  13.285   3.169   4.570
  410SOL    HW215751  13.313   3.088   4.695
  410SOL     MW15752  13.331   3.106   4.611
  411SOL     OW15753  12.082   1.232   5.911
  411SOL    HW115754  12.047   1.314   5.874
  411SOL    HW215755  12.071   1.242   6.005
  411SOL     MW15756  12.076   1.243   5.918
  412SOL     OW15757  10.818   3.096   4.214
  412SOL    HW115758  10.806   3.065   4.304
  412SOL    HW215759  10.823   3.191   4.223
  412SOL     MW15760  10.817   3.104   4.226
  413SOL     OW15761  11.332   3.229   3.093
  413SOL    HW115762  11.358   3.311   3.051
  413SOL    HW215763  11.252   3.204   3.049
  413SOL     MW15764  11.326   3.236   3.083
  414SOL     OW15765  10.140   0.274   4.727
  414SOL    HW115766  10.135   0.306   4.818
  414SOL    HW215767  10.050   0.280   4.695
  414SOL     MW15768  10.129   0.279   4.734
  415SOL     OW15769  10.850   0.195   3.925
  415SOL    HW115770  10.939   0.227   3.906
  415SOL    HW215771  10.806   0.200   3.841
  415SOL     MW15772  10.856   0.199   3.913
  416SOL     OW15773  11.546   1.977   4.953
  416SOL    HW115774  11.595   2.045   4.906
  416SOL    HW215775  11.525   2.016   5.036
  416SOL     MW15776  11.549   1.990   4.957
  417SOL     OW15777  10.927   1.159   6.121
  417SOL    HW115778  10.929   1.091   6.053
  417SOL    HW215779  11.019   1.178   6.137
  417SOL     MW15780  10.938   1.153   6.114
  418SOL     OW15781  10.031   3.247   5.791
  418SOL    HW115782  10.125   3.225   5.780
  418SOL    HW215783  10.009   3.294   5.712
  418SOL     MW15784  10.040   3.250   5.780
  419SOL     OW15785  12.540   0.421   5.837
  419SOL    HW115786  12.474   0.353   5.857
  419SOL    HW215787  12.495   0.502   5.854
  419SOL     MW15788  12.526   0.422   5.841
  420SOL     OW15789  11.338   0.099   3.102
  420SOL    HW115790  11.306   0.025   3.050
  420SOL    HW215791  11.267   0.161   3.101
  420SOL     MW15792  11.326   0.097   3.096
  421SOL     OW15793  12.059   1.541   3.783
  421SOL    HW115794  12.039   1.606   3.715
  421SOL    HW215795  11.989   1.478   3.776
  421SOL     MW15796  12.048   1.542   3.774
  422SOL     OW15797  11.904   2.065   4.454
  422SOL    HW115798  11.924   2.159   4.448
  422SOL    HW215799  11.982   2.023   4.418
  422SOL     MW15800  11.916   2.072   4.449
  423SOL     OW15801  11.954   2.950   4.637
  423SOL    HW115802  12.048   2.971   4.647
  423SOL    HW215803  11.926   2.927   4.724
  423SOL     MW15804  11.962   2.950   4.648
  424SOL     OW15805  10.756   3.167   4.015
  424SOL    HW115806  10.763   3.096   3.949
  424SOL    HW215807  10.831   3.222   3.998
  424SOL     MW15808  10.765   3.164   4.005
  425SOL     OW15809  11.514   1.638   3.122
  425SOL    HW115810  11.486   1.605   3.208
  425SOL    HW215811  11.584   1.699   3.141
  425SOL     MW15812  11.519   1.641   3.134
  426SOL     OW15813  10.939   0.770   3.565
  426SOL    HW115814  11.029   0.742   3.544
  426SOL    HW215815  10.918   0.833   3.497
  426SOL     MW15816  10.948   0.774   3.554
  427SOL     OW15817  13.070   0.538   5.721
  427SOL    HW115818  13.060   0.586   5.804
  427SOL    HW215819  13.032   0.452   5.740
  427SOL     MW15820  13.064   0.533   5.734
  428SOL     OW15821  10.136   0.674   5.991
  428SOL    HW115822  10.199   0.602   5.988
  428SOL    HW215823  10.103   0.680   5.902
  428SOL     MW15824  10.140   0.666   5.980
  429SOL     OW15825  10.565   1.732   4.181
  429SOL    HW115826  10.513   1.712   4.260
  429SOL    HW215827  10.645   1.769   4.216
  429SOL     MW15828  10.568   1.734   4.195
  430SOL     OW15829  12.212   0.453   5.411
  430SOL    HW115830  12.149   0.516   5.374
  430SOL    HW215831  12.159   0.385   5.449
  430SOL     MW15832  12.198   0.453   5.411
  431SOL     OW15833  13.101   2.178   4.561
  431SOL    HW115834  13.066   2.256   4.606
  431SOL    HW215835  13.043   2.167   4.486
  431SOL     MW15836  13.090   2.186   4.558
  432SOL     OW15837  12.012   1.489   4.045
  432SOL    HW115838  12.059   1.574   4.041
  432SOL    HW215839  12.049   1.446   4.121
  432SOL     MW15840  12.022   1.495   4.054
  433SOL     OW15841  10.075   2.948   3.313
  433SOL    HW115842  10.048   3.017   3.375
  433SOL    HW215843  10.169   2.941   3.326
  433SOL     MW15844  10.083   2.956   3.322
  434SOL     OW15845  11.296   1.521   3.391
  434SOL    HW115846  11.272   1.505   3.300
  434SOL    HW215847  11.353   1.597   3.388
  434SOL     MW15848  11.300   1.528   3.380
  435SOL     OW15849  13.104   2.658   3.438
  435SOL    HW115850  13.018   2.699   3.449
  435SOL    HW215851  13.145   2.709   3.369
  435SOL     MW15852  13.098   2.669   3.431
  436SOL     OW15853  11.770   2.507   5.094
  436SOL    HW115854  11.743   2.590   5.054
  436SOL    HW215855  11.864   2.505   5.082
  436SOL     MW15856  11.778   2.517   5.088
  437SOL     OW15857  11.038   0.961   4.419
  437SOL    HW115858  11.114   0.969   4.477
  437SOL    HW215859  11.072   0.979   4.333
  437SOL     MW15860  11.051   0.964   4.416
  438SOL     OW15861  12.748   2.676   3.700
  438SOL    HW115862  12.778   2.764   3.675
  438SOL    HW215863  12.697   2.647   3.626
  438SOL     MW15864  12.746   2.683   3.688
  439SOL     OW15865  12.724   1.931   4.690
  439SOL    HW115866  12.674   1.986   4.750
  439SOL    HW215867  12.667   1.921   4.615
  439SOL     MW15868  12.712   1.936   4.688
  440SOL     OW15869  12.053   0.289   4.048
  440SOL    HW115870  12.100   0.372   4.037
  440SOL    HW215871  12.106   0.240   4.110
  440SOL     MW15872  12.065   0.293   4.054
  441SOL     OW15873  13.341   0.152   4.931
  441SOL    HW115874  13.273   0.088   4.907
  441SOL    HW215875  13.296   0.216   4.984
  441SOL     MW15876  13.327   0.152   4.934
  442SOL     OW15877  12.474   1.477   3.167
  442SOL    HW115878  12.560   1.518   3.180
  442SOL    HW215879  12.493   1.393   3.128
  442SOL     MW15880  12.486   1.472   3.164
  443SOL     OW15881  12.862   0.756   4.535
  443SOL    HW115882  12.899   0.845   4.532
  443SOL    HW215883  12.938   0.699   4.533
  443SOL     MW15884  12.876   0.760   4.534
  444SOL     OW15885  12.636   2.316   5.920
  444SOL    HW115886  12.697   2.273   5.858
  444SOL    HW215887  12.671   2.403   5.930
  444SOL     MW15888  12.648   2.321   5.913
  445SOL     OW15889  11.547   3.438   6.508
  445SOL    HW115890  11.458   3.460   6.477
  445SOL    HW215891  11.549   3.343   6.510
  445SOL     MW15892  11.536   3.430   6.504
  446SOL     OW15893  11.841   2.988   6.416
  446SOL    HW115894  11.900   2.912   6.424
  446SOL    HW215895  11.801   2.977   6.331
  446SOL     MW15896  11.844   2.977   6.407
  447SOL     OW15897  13.088   3.194   4.869
  447SOL    HW115898  12.994   3.194   4.890
  447SOL    HW215899  13.098   3.121   4.810
  447SOL     MW15900  13.078   3.185   4.864
  448SOL     OW15901  12.481   1.796   3.868
  448SOL    HW115902  12.443   1.877   3.833
  448SOL    HW215903  12.450   1.729   3.809
  448SOL     MW15904  12.473   1.798   3.856
  449SOL     OW15905  10.119   3.030   4.737
  449SOL    HW115906  10.200   3.001   4.782
  449SOL    HW215907  10.053   2.967   4.765
  449SOL     MW15908  10.121   3.019   4.746
  450SOL     OW15909  10.398   3.361   3.314
  450SOL    HW115910  10.481   3.400   3.283
  450SOL    HW215911  10.334   3.389   3.250
  450SOL     MW15912  10.401   3.369   3.303
  451SOL     OW15913  10.651   0.038   3.616
  451SOL    HW115914  10.597  -0.000   3.686
  451SOL    HW215915  10.640   0.132   3.627
  451SOL     MW15916  10.643   0.044   3.626
  452SOL     OW15917  12.712   0.981   3.747
  452SOL    HW115918  12.745   0.913   3.686
  452SOL    HW215919  12.773   1.053   3.737
  452SOL     MW15920  12.723   0.981   3.738
  453SOL     OW15921  11.270   1.161   4.524
  453SOL    HW115922  11.205   1.232   4.524
  453SOL    HW215923  11.249   1.111   4.602
  453SOL     MW15924  11.259   1.164   4.533
  454SOL     OW15925  12.586   1.267   3.371
  454SOL    HW115926  12.504   1.235   3.412
  454SOL    HW215927  12.573   1.253   3.279
  454SOL     MW15928  12.574   1.261   3.365
  455SOL     OW15929  12.022   3.066   3.904
  455SOL    HW115930  12.113   3.094   3.917
  455SOL    HW215931  12.022   2.973   3.926
  455SOL     MW15932  12.033   3.058   3.908
  456SOL     OW15933  11.013   0.021   3.644
  456SOL    HW115934  11.101  -0.000   3.676
  456SOL    HW215935  10.956   0.000   3.716
  456SOL     MW15936  11.017   0.016   3.656
  457SOL     OW15937  10.932   2.405   6.242
  457SOL    HW115938  10.852   2.432   6.289
  457SOL    HW215939  10.958   2.483   6.194
  457SOL     MW15940  10.925   2.418   6.242
  458SOL     OW15941  12.608   2.458   3.301
  458SOL    HW115942  12.620   2.405   3.380
  458SOL    HW215943  12.515   2.477   3.299
  458SOL     MW15944  12.598   2.454   3.310
  459SOL     OW15945  12.000   3.334   3.166
  459SOL    HW115946  12.044   3.392   3.230
  459SOL    HW215947  12.011   3.247   3.201
  459SOL     MW15948  12.007   3.331   3.178
  460SOL     OW15949  10.276   2.891   5.603
  460SOL    HW115950  10.194   2.873   5.557
  460SOL    HW215951  10.300   2.979   5.576
  460SOL     MW15952  10.269   2.899   5.594
  461SOL     OW15953  12.310   0.888   4.240
  461SOL    HW115954  12.389   0.928   4.277
  461SOL    HW215955  12.342   0.814   4.192
  461SOL     MW15956  12.324   0.884   4.239
  462SOL     OW15957  13.244   1.315   3.768
  462SOL    HW115958  13.283   1.394   3.806
  462SOL    HW215959  13.173   1.348   3.713
  462SOL     MW15960  13.240   1.328   3.766
  463SOL     OW15961  12.881   1.926   5.733
  463SOL    HW115962  12.857   1.923   5.826
  463SOL    HW215963  12.942   1.999   5.727
  463SOL     MW15964  12.885   1.935   5.744
  464SOL     OW15965  10.340   3.032   3.517
  464SOL    HW115966  10.418   2.990   3.555
  464SOL    HW215967  10.268   2.978   3.546
  464SOL     MW15968  10.341   3.021   3.525
  465SOL     OW15969  12.609   0.290   4.764
  465SOL    HW115970  12.654   0.322   4.842
  465SOL    HW215971  12.597   0.197   4.780
  465SOL     MW15972  12.613   0.283   4.775
  466SOL     OW15973  11.547   2.393   4.762
  466SOL    HW115974  11.452   2.385   4.777
  466SOL    HW215975  11.572   2.470   4.811
  466SOL     MW15976  11.538   2.401   4.770
  467SOL     OW15977  11.362   1.425   6.480
  467SOL    HW115978  11.430   1.366   6.446
  467SOL    HW215979  11.298   1.428   6.410
  467SOL     MW15980  11.363   1.418   6.468
  468SOL     OW15981  10.549   2.784   4.742
  468SOL    HW115982  10.532   2.732   4.822
  468SOL    HW215983  10.510   2.733   4.672
  468SOL     MW15984  10.543   2.772   4.744
  469SOL     OW15985  12.809   2.510   4.943
  469SOL    HW115986  12.723   2.467   4.934
  469SOL    HW215987  12.864   2.446   4.984
  469SOL     MW15988  12.805   2.497   4.946
  470SOL     OW15989  11.698   2.940   5.990
  470SOL    HW115990  11.635   2.961   5.920
  470SOL    HW215991  11.722   2.850   5.973
  470SOL     MW15992  11.693   2.932   5.979
  471SOL     OW15993  12.352   1.792   3.451
  471SOL    HW115994  12.298   1.746   3.516
  471SOL    HW215995  12.302   1.786   3.370
  471SOL     MW15996  12.340   1.786   3.449
  472SOL     OW15997  11.580   0.892   5.047
  472SOL    HW115998  11.638   0.942   5.107
  472SOL    HW215999  11.635   0.873   4.972
  472SOL     MW16000  11.594   0.896   5.046
  473SOL     OW16001  11.100   0.073   3.953
  473SOL    HW116002  11.139   0.003   3.900
  473SOL    HW216003  11.146   0.152   3.926
  473SOL     MW16004  11.110   0.074   3.943
  474SOL     OW16005  10.507   1.653   5.069
  474SOL    HW116006  10.598   1.622   5.066
  474SOL    HW216007  10.502   1.719   5.000
  474SOL     MW16008  10.517   1.657   5.060
  475SOL     OW16009  10.473   1.347   5.087
  475SOL    HW116010  10.453   1.277   5.024
  475SOL    HW216011  10.563   1.371   5.068
  475SOL     MW16012  10.481   1.341   5.077
  476SOL     OW16013  12.194   1.796   4.245
  476SOL    HW116014  12.223   1.804   4.154
  476SOL    HW216015  12.244   1.722   4.279
  476SOL     MW16016  12.204   1.788   4.238
  477SOL     OW16017  10.411   3.406   5.790
  477SOL    HW116018  10.439   3.334   5.847
  477SOL    HW216019  10.357   3.461   5.846
  477SOL     MW16020  10.408   3.404   5.804
  478SOL     OW16021  12.258   3.249   4.995
  478SOL    HW116022  12.219   3.306   4.929
  478SOL    HW216023  12.186   3.193   5.023
  478SOL     MW16024  12.245   3.249   4.990
  479SOL     OW16025  10.176   3.014   5.810
  479SOL    HW116026  10.221   2.958   5.874
  479SOL    HW216027  10.084   2.993   5.821
  479SOL     MW16028  10.170   3.005   5.819
  480SOL     OW16029  10.961   0.883   5.868
  480SOL    HW116030  10.905   0.847   5.798
  480SOL    HW216031  11.044   0.839   5.856
  480SOL     MW16032  10.964   0.873   5.858
  481SOL     OW16033  11.953   3.350   3.471
  481SOL    HW116034  11.975   3.364   3.564
  481SOL    HW216035  11.993   3.266   3.451
  481SOL     MW16036  11.961   3.342   3.480
  482SOL     OW16037  11.225   1.340   3.601
  482SOL    HW116038  11.275   1.333   3.683
  482SOL    HW216039  11.160   1.271   3.608
  482SOL     MW16040  11.223   1.331   3.612
  483SOL     OW16041  10.067   1.215   3.223
  483SOL    HW116042  10.136   1.250   3.279
  483SOL    HW216043  10.066   1.273   3.147
  483SOL     MW16044  10.075   1.226   3.221
  484SOL     OW16045  10.677   0.892   4.490
  484SOL    HW116046  10.596   0.945   4.495
  484SOL    HW216047  10.718   0.919   4.409
  484SOL     MW16048  10.672   0.902   4.481
  485SOL     OW16049  12.455   0.132   5.700
  485SOL    HW116050  12.451   0.041   5.730
  485SOL    HW216051  12.540   0.163   5.729
  485SOL     MW16052  12.464   0.125   5.707
  486SOL     OW16053  12.094   0.579   4.926
  486SOL    HW116054  12.105   0.506   4.864
  486SOL    HW216055  12.064   0.538   5.006
  486SOL     MW16056  12.092   0.565   4.928
  487SOL     OW16057  12.392   2.610   5.001
  487SOL    HW116058  12.317   2.598   5.059
  487SOL    HW216059  12.435   2.689   5.032
  487SOL     MW16060  12.388   2.618   5.012
  488SOL     OW16061  12.765   0.779   4.135
  488SOL    HW116062  12.740   0.872   4.127
  488SOL    HW216063  12.683   0.733   4.135
  488SOL     MW16064  12.752   0.785   4.134
  489SOL     OW16065  12.469   2.461   5.772
  489SOL    HW116066  12.530   2.494   5.705
  489SOL    HW216067  12.387   2.504   5.752
  489SOL     MW16068  12.466   2.470   5.761
  490SOL     OW16069  12.226   2.172   5.306
  490SOL    HW116070  12.296   2.172   5.241
  490SOL    HW216071  12.179   2.253   5.291
  490SOL     MW16072  12.229   2.181   5.297
  491SOL     OW16073  12.979   2.996   5.335
  491SOL    HW116074  13.026   2.927   5.384
  491SOL    HW216075  13.046   3.035   5.280
  491SOL     MW16076  12.993   2.992   5.334
  492SOL     OW16077  11.136   2.554   3.101
  492SOL    HW116078  11.163   2.623   3.162
  492SOL    HW216079  11.217   2.524   3.062
  492SOL     MW16080  11.149   2.559   3.104
  493SOL     OW16081  10.401   1.401   5.309
  493SOL    HW116082  10.413   1.322   5.364
  493SOL    HW216083  10.335   1.451   5.355
  493SOL     MW16084  10.395   1.397   5.321
  494SOL     OW16085  11.469   2.391   4.463
  494SOL    HW116086  11.496   2.325   4.528
  494SOL    HW216087  11.377   2.404   4.480
  494SOL     MW16088  11.462   2.384   4.473
  495SOL     OW16089  13.029   3.218   5.429
  495SOL    HW116090  12.941   3.183   5.445
  495SOL    HW216091  13.087   3.151   5.463
  495SOL     MW16092  13.025   3.206   5.435
  496SOL     OW16093  10.729   2.247   3.350
  496SOL    HW116094  10.734   2.194   3.430
  496SOL    HW216095  10.812   2.231   3.306
  496SOL     MW16096  10.740   2.238   3.354
  497SOL     OW16097  11.704   2.955   4.405
  497SOL    HW116098  11.656   2.969   4.488
  497SOL    HW216099  11.795   2.950   4.432
  497SOL     MW16100  11.709   2.956   4.419
  498SOL     OW16101  13.252   1.516   5.745
  498SOL    HW116102  13.298   1.462   5.680
  498SOL    HW216103  13.163   1.484   5.744
  498SOL     MW16104  13.247   1.506   5.737
  499SOL     OW16105  12.693   0.863   4.769
  499SOL    HW116106  12.769   0.849   4.711
  499SOL    HW216107  12.665   0.952   4.750
  499SOL     MW16108  12.699   0.872   4.760
  500SOL     OW16109  10.107   1.299   4.215
  500SOL    HW116110  10.169   1.357   4.261
  500SOL    HW216111  10.111   1.326   4.124
  500SOL     MW16112  10.115   1.309   4.210
  501SOL     OW16113  11.665   2.182   4.447
  501SOL    HW116114  11.721   2.201   4.523
  501SOL    HW216115  11.689   2.094   4.421
  501SOL     MW16116  11.674   2.174   4.453
  502SOL     OW16117  10.043   3.368   4.365
  502SOL    HW116118  10.010   3.328   4.284
  502SOL    HW216119  10.117   3.419   4.337
  502SOL     MW16120  10.047   3.369   4.352
  503SOL     OW16121  13.245   2.419   6.224
  503SOL    HW116122  13.199   2.418   6.308
  503SOL    HW216123  13.177   2.409   6.159
  503SOL     MW16124  13.231   2.418   6.227
  504SOL     OW16125  13.142   1.156   5.349
  504SOL    HW116126  13.056   1.189   5.322
  504SOL    HW216127  13.176   1.114   5.271
  504SOL     MW16128  13.135   1.156   5.336
  505SOL     OW16129  13.118   2.609   4.329
  505SOL    HW116130  13.101   2.691   4.282
  505SOL    HW216131  13.126   2.635   4.420
  505SOL     MW16132  13.117   2.622   4.334
  506SOL     OW16133  12.903   0.140   4.899
  506SOL    HW116134  12.969   0.122   4.831
  506SOL    HW216135  12.918   0.071   4.964
  506SOL     MW16136  12.913   0.129   4.899
  507SOL     OW16137  12.724   2.661   4.793
  507SOL    HW116138  12.716   2.734   4.731
  507SOL    HW216139  12.644   2.612   4.783
  507SOL     MW16140  12.714   2.664   4.784
  508SOL     OW16141  10.158   2.444   3.104
  508SOL    HW116142  10.218   2.466   3.175
  508SOL    HW216143  10.113   2.366   3.134
  508SOL     MW16144  10.160   2.438   3.116
  509SOL     OW16145  10.870   0.939   3.931
  509SOL    HW116146  10.938   0.982   3.984
  509SOL    HW216147  10.866   0.851   3.964
  509SOL     MW16148  10.877   0.934   3.941
  510SOL     OW16149  12.155   3.023   6.261
  510SOL    HW116150  12.118   3.016   6.173
  510SOL    HW216151  12.206   2.944   6.272
  510SOL     MW16152  12.157   3.013   6.251
  511SOL     OW16153  11.588   0.282   6.214
  511SOL    HW116154  11.630   0.259   6.130
  511SOL    HW216155  11.656   0.265   6.279
  511SOL     MW16156  11.601   0.277   6.212
  512SOL     OW16157  10.376   3.210   6.403
  512SOL    HW116158  10.403   3.145   6.469
  512SOL    HW216159  10.282   3.201   6.400
  512SOL     MW16160  10.368   3.201   6.411
  513SOL     OW16161  10.947   2.002   4.918
  513SOL    HW116162  10.854   1.983   4.932
  513SOL    HW216163  10.990   1.969   4.996
  513SOL     MW16164  10.941   1.996   4.929
  514SOL     OW16165  11.800   2.091   3.835
  514SOL    HW116166  11.823   2.086   3.742
  514SOL    HW216167  11.854   2.161   3.869
  514SOL     MW16168  11.810   2.098   3.828
  515SOL     OW16169  10.063   2.544   6.112
  515SOL    HW116170  10.009   2.564   6.188
  515SOL    HW216171  10.130   2.611   6.113
  515SOL     MW16172  10.064   2.555   6.121
  516SOL     OW16173  12.432   0.722   6.434
  516SOL    HW116174  12.369   0.741   6.505
  516SOL    HW216175  12.389   0.756   6.356
  516SOL     MW16176  12.419   0.729   6.433
  517SOL     OW16177  11.061   3.317   6.251
  517SOL    HW116178  10.969   3.344   6.253
  517SOL    HW216179  11.078   3.283   6.338
  517SOL     MW16180  11.052   3.316   6.261
  518SOL     OW16181  11.175   0.191   3.493
  518SOL    HW116182  11.183   0.271   3.546
  518SOL    HW216183  11.231   0.128   3.536
  518SOL     MW16184  11.182   0.193   3.504
  519SOL     OW16185  10.234   0.665   3.533
  519SOL    HW116186  10.317   0.651   3.578
  519SOL    HW216187  10.206   0.577   3.509
  519SOL     MW16188  10.241   0.653   3.535
  520SOL     OW16189  13.175   1.402   5.948
  520SOL    HW116190  13.108   1.467   5.969
  520SOL    HW216191  13.130   1.319   5.955
  520SOL     MW16192  13.161   1.400   5.951
  521SOL     OW16193  11.887   2.582   5.318
  521SOL    HW116194  11.920   2.639   5.247
  521SOL    HW216195  11.793   2.584   5.306
  521SOL     MW16196  11.880   2.589   5.308
  522SOL     OW16197  11.156  -0.001   3.280
  522SOL    HW116198  11.070   0.027   3.314
  522SOL    HW216199  11.213   0.003   3.356
  522SOL     MW16200  11.153   0.003   3.293
  523SOL     OW16201  10.331   0.325   3.603
  523SOL    HW116202  10.311   0.291   3.691
  523SOL    HW216203  10.254   0.375   3.579
  523SOL     MW16204  10.319   0.327   3.611
  524SOL     OW16205  12.883   1.807   4.054
  524SOL    HW116206  12.803   1.855   4.030
  524SOL    HW216207  12.910   1.765   3.974
  524SOL     MW16208  12.877   1.808   4.042
  525SOL     OW16209  10.579   2.154   4.896
  525SOL    HW116210  10.497   2.181   4.939
  525SOL    HW216211  10.643   2.217   4.927
  525SOL     MW16212  10.576   2.165   4.905
  526SOL     OW16213  11.689   1.040   5.788
  526SOL    HW116214  11.711   1.003   5.702
  526SOL    HW216215  11.744   0.992   5.848
  526SOL     MW16216  11.698   1.030   5.785
  527SOL     OW16217  12.893   1.250   5.648
  527SOL    HW116218  12.866   1.210   5.731
  527SOL    HW216219  12.987   1.256   5.655
  527SOL     MW16220  12.901   1.246   5.659
  528SOL     OW16221  11.873   2.515   6.150
  528SOL    HW116222  11.955   2.519   6.100
  528SOL    HW216223  11.834   2.601   6.139
  528SOL     MW16224  11.878   2.526   6.143
  529SOL     OW16225  11.354   2.593   5.379
  529SOL    HW116226  11.345   2.521   5.442
  529SOL    HW216227  11.279   2.649   5.396
  529SOL     MW16228  11.344   2.591   5.388
  530SOL     OW16229  10.957   1.322   4.307
  530SOL    HW116230  10.869   1.359   4.290
  530SOL    HW216231  10.947   1.229   4.290
  530SOL     MW16232  10.945   1.315   4.303
  531SOL     OW16233  10.166   3.463   3.794
  531SOL    HW116234  10.102   3.412   3.744
  531SOL    HW216235  10.222   3.397   3.835
  531SOL     MW16236  10.165   3.449   3.793
  532SOL     OW16237  11.450   2.734   5.596
  532SOL    HW116238  11.389   2.665   5.624
  532SOL    HW216239  11.406   2.776   5.523
  532SOL     MW16240  11.438   2.730   5.591
  533SOL     OW16241  11.236   3.123   6.326
  533SOL    HW116242  11.282   3.088   6.403
  533SOL    HW216243  11.157   3.071   6.321
  533SOL     MW16244  11.232   3.113   6.335
  534SOL     OW16245  10.946   2.901   5.021
  534SOL    HW116246  11.007   2.975   5.030
  534SOL    HW216247  11.002   2.825   5.020
  534SOL     MW16248  10.960   2.901   5.022
  535SOL     OW16249  10.607   1.476   6.079
  535SOL    HW116250  10.541   1.461   6.148
  535SOL    HW216251  10.624   1.569   6.083
  535SOL     MW16252  10.601   1.485   6.088
  536SOL     OW16253  12.599   1.212   5.369
  536SOL    HW116254  12.595   1.276   5.441
  536SOL    HW216255  12.677   1.162   5.387
  536SOL     MW16256  12.608   1.214   5.380
  537SOL     OW16257  10.906   2.190   5.104
  537SOL    HW116258  10.898   2.282   5.129
  537SOL    HW216259  10.864   2.185   5.020
  537SOL     MW16260  10.900   2.200   5.097
  538SOL     OW16261  12.226   2.093   4.231
  538SOL    HW116262  12.275   2.014   4.206
  538SOL    HW216263  12.178   2.117   4.153
  538SOL     MW16264  12.226   2.087   4.219
  539SOL     OW16265  12.551   2.629   6.377
  539SOL    HW116266  12.479   2.644   6.439
  539SOL    HW216267  12.613   2.698   6.395
  539SOL     MW16268  12.550   2.639   6.386
  540SOL     OW16269  10.249   0.436   4.478
  540SOL    HW116270  10.325   0.380   4.497
  540SOL    HW216271  10.227   0.475   4.563
  540SOL     MW16272  10.256   0.434   4.491
  541SOL     OW16273  11.925   1.449   6.312
  541SOL    HW116274  11.986   1.400   6.256
  541SOL    HW216275  11.970   1.530   6.331
  541SOL     MW16276  11.938   1.453   6.307
  542SOL     OW16277  10.783   0.374   4.453
  542SOL    HW116278  10.716   0.365   4.385
  542SOL    HW216279  10.863   0.349   4.411
  542SOL     MW16280  10.784   0.370   4.440
  543SOL     OW16281  11.417   1.600   4.775
  543SOL    HW116282  11.368   1.562   4.701
  543SOL    HW216283  11.349   1.628   4.835
  543SOL     MW16284  11.403   1.598   4.773
  544SOL     OW16285  13.148   0.137   5.487
  544SOL    HW116286  13.138   0.139   5.583
  544SOL    HW216287  13.196   0.057   5.470
  544SOL     MW16288  13.153   0.128   5.497
  545SOL     OW16289  13.333   0.313   6.308
  545SOL    HW116290  13.311   0.276   6.393
  545SOL    HW216291  13.292   0.399   6.308
  545SOL     MW16292  13.326   0.319   6.318
  546SOL     OW16293  12.509   0.154   3.432
  546SOL    HW116294  12.526   0.073   3.383
  546SOL    HW216295  12.515   0.222   3.366
  546SOL     MW16296  12.512   0.152   3.418
  547SOL     OW16297  11.910   2.954   3.216
  547SOL    HW116298  11.846   2.936   3.286
  547SOL    HW216299  11.941   3.041   3.235
  547SOL     MW16300  11.906   2.962   3.227
  548SOL     OW16301  13.279  -0.000   5.793
  548SOL    HW116302  13.283   0.083   5.840
  548SOL    HW216303  13.196   0.003   5.746
  548SOL     MW16304  13.270   0.010   5.793
  549SOL     OW16305  10.085   2.530   5.242
  549SOL    HW116306  10.039   2.610   5.215
  549SOL    HW216307  10.029   2.491   5.307
  549SOL     MW16308  10.073   2.536   5.246
  550SOL     OW16309  10.546   0.246   3.877
  550SOL    HW116310  10.601   0.271   3.802
  550SOL    HW216311  10.459   0.275   3.852
  550SOL     MW16312  10.542   0.252   3.865
  551SOL     OW16313  11.927   0.958   5.540
  551SOL    HW116314  11.948   0.960   5.446
  551SOL    HW216315  12.006   0.925   5.581
  551SOL     MW16316  11.939   0.955   5.533
  552SOL     OW16317  11.796   1.354   3.612
  552SOL    HW116318  11.768   1.285   3.550
  552SOL    HW216319  11.862   1.312   3.665
  552SOL     MW16320  11.800   1.341   3.610
  553SOL     OW16321  11.969   2.303   4.263
  553SOL    HW116322  12.047   2.289   4.319
  553SOL    HW216323  11.915   2.363   4.313
  553SOL     MW16324  11.972   2.309   4.276
  554SOL     OW16325  10.425   0.752   6.160
  554SOL    HW116326  10.472   0.835   6.171
  554SOL    HW216327  10.341   0.767   6.202
  554SOL     MW16328  10.420   0.764   6.166
  555SOL     OW16329  13.278   1.069   6.150
  555SOL    HW116330  13.294   1.025   6.234
  555SOL    HW216331  13.341   1.140   6.149
  555SOL     MW16332  13.288   1.072   6.160
  556SOL     OW16333  12.988   1.091   3.638
  556SOL    HW116334  13.010   1.093   3.544
  556SOL    HW216335  12.982   1.183   3.662
  556SOL     MW16336  12.990   1.102   3.629
  557SOL     OW16337  10.862   2.581   3.724
  557SOL    HW116338  10.942   2.527   3.727
  557SOL    HW216339  10.889   2.664   3.761
  557SOL     MW16340  10.875   2.584   3.729
  558SOL     OW16341  10.257   0.888   3.662
  558SOL    HW116342  10.325   0.865   3.727
  558SOL    HW216343  10.186   0.829   3.681
  558SOL     MW16344  10.257   0.878   3.672
  559SOL     OW16345  11.399   2.364   5.780
  559SOL    HW116346  11.472   2.310   5.815
  559SOL    HW216347  11.350   2.304   5.725
  559SOL     MW16348  11.402   2.350   5.778
  560SOL     OW16349  11.631   1.139   4.753
  560SOL    HW116350  11.639   1.047   4.780
  560SOL    HW216351  11.664   1.188   4.828
  560SOL     MW16352  11.636   1.134   4.765
  561SOL     OW16353  12.630   2.216   6.269
  561SOL    HW116354  12.588   2.236   6.185
  561SOL    HW216355  12.559   2.188   6.325
  561SOL     MW16356  12.617   2.215   6.266
  562SOL     OW16357  13.285   0.853   4.770
  562SOL    HW116358  13.202   0.806   4.782
  562SOL    HW216359  13.339   0.793   4.720
  562SOL     MW16360  13.281   0.840   4.765
  563SOL     OW16361  12.698   0.686   4.387
  563SOL    HW116362  12.734   0.623   4.324
  563SOL    HW216363  12.731   0.770   4.358
  563SOL     MW16364  12.706   0.688   4.376
  564SOL     OW16365  12.238   0.509   3.287
  564SOL    HW116366  12.236   0.451   3.210
  564SOL    HW216367  12.147   0.530   3.304
  564SOL     MW16368  12.227   0.504   3.280
  565SOL     OW16369  12.507   0.876   4.886
  565SOL    HW116370  12.513   0.781   4.868
  565SOL    HW216371  12.422   0.887   4.925
  565SOL     MW16372  12.498   0.866   4.889
  566SOL     OW16373  11.032   0.322   5.778
  566SOL    HW116374  11.047   0.252   5.712
  566SOL    HW216375  10.938   0.326   5.786
  566SOL     MW16376  11.023   0.314   5.771
  567SOL     OW16377  11.799   2.469   6.406
  567SOL    HW116378  11.824   2.551   6.362
  567SOL    HW216379  11.813   2.402   6.340
  567SOL     MW16380  11.804   2.471   6.393
  568SOL     OW16381  12.935   2.439   5.470
  568SOL    HW116382  13.005   2.446   5.404
  568SOL    HW216383  12.874   2.507   5.446
  568SOL     MW16384  12.936   2.448   5.459
  569SOL     OW16385  12.624   3.340   5.597
  569SOL    HW116386  12.683   3.388   5.655
  569SOL    HW216387  12.650   3.367   5.510
  569SOL     MW16388  12.634   3.349   5.594
  570SOL     OW16389  13.255   0.826   6.478
  570SOL    HW116390  13.171   0.779   6.481
  570SOL    HW216391  13.297   0.793   6.400
  570SOL     MW16392  13.249   0.817   6.469
  571SOL     OW16393  11.700   1.870   4.824
  571SOL    HW116394  11.632   1.887   4.758
  571SOL    HW216395  11.782   1.880   4.776
  571SOL     MW16396  11.702   1.873   4.810
  572SOL     OW16397  11.438   2.526   5.925
  572SOL    HW116398  11.496   2.600   5.902
  572SOL    HW216399  11.382   2.562   5.992
  572SOL     MW16400  11.439   2.540   5.930
  573SOL     OW16401  12.571   2.194   3.922
  573SOL    HW116402  12.562   2.120   3.861
  573SOL    HW216403  12.658   2.183   3.959
  573SOL     MW16404  12.580   2.184   3.919
  574SOL     OW16405  12.255   1.854   5.911
  574SOL    HW116406  12.197   1.839   5.986
  574SOL    HW216407  12.264   1.949   5.908
  574SOL     MW16408  12.249   1.864   5.920
  575SOL     OW16409  11.380   2.230   4.237
  575SOL    HW116410  11.334   2.226   4.321
  575SOL    HW216411  11.400   2.322   4.226
  575SOL     MW16412  11.377   2.240   4.246
  576SOL     OW16413  12.552   3.436   5.202
  576SOL    HW116414  12.554   3.341   5.187
  576SOL    HW216415  12.644   3.461   5.205
  576SOL     MW16416  12.563   3.428   5.201
  577SOL     OW16417  10.456   0.716   4.521
  577SOL    HW116418  10.471   0.771   4.444
  577SOL    HW216419  10.363   0.695   4.516
  577SOL     MW16420  10.447   0.720   4.511
  578SOL     OW16421  10.789   2.911   3.375
  578SOL    HW116422  10.747   2.878   3.295
  578SOL    HW216423  10.718   2.948   3.425
  578SOL     MW16424  10.776   2.912   3.371
  579SOL     OW16425  12.141   2.834   5.587
  579SOL    HW116426  12.222   2.799   5.549
  579SOL    HW216427  12.154   2.928   5.589
  579SOL     MW16428  12.152   2.841   5.582
  580SOL     OW16429  10.366   3.185   5.990
  580SOL    HW116430  10.279   3.147   5.970
  580SOL    HW216431  10.366   3.195   6.084
  580SOL     MW16432  10.355   3.181   5.998
  581SOL     OW16433  13.248   0.465   4.090
  581SOL    HW116434  13.153   0.461   4.076
  581SOL    HW216435  13.264   0.557   4.109
  581SOL     MW16436  13.238   0.475   4.090
  582SOL     OW16437  11.537   0.481   5.030
  582SOL    HW116438  11.499   0.510   4.946
  582SOL    HW216439  11.583   0.558   5.062
  582SOL     MW16440  11.537   0.494   5.023
  583SOL     OW16441  11.247   0.119   5.524
  583SOL    HW116442  11.294   0.085   5.600
  583SOL    HW216443  11.162   0.145   5.559
  583SOL     MW16444  11.242   0.118   5.538
  584SOL     OW16445  11.696   1.048   5.291
  584SOL    HW116446  11.751   1.095   5.228
  584SOL    HW216447  11.757   0.997   5.342
  584SOL     MW16448  11.710   1.048   5.290
  585SOL     OW16449  12.340   2.396   5.143
  585SOL    HW116450  12.246   2.411   5.153
  585SOL    HW216451  12.347   2.329   5.076
  585SOL     MW16452  12.330   2.390   5.136
  586SOL     OW16453  10.574   2.912   4.958
  586SOL    HW116454  10.645   2.848   4.970
  586SOL    HW216455  10.618   2.995   4.947
  586SOL     MW16456  10.588   2.914   4.958
  587SOL     OW16457  10.935   3.223   3.790
  587SOL    HW116458  10.993   3.264   3.855
  587SOL    HW216459  10.943   3.130   3.807
  587SOL     MW16460  10.943   3.217   3.800
  588SOL     OW16461  10.507   0.918   5.040
  588SOL    HW116462  10.443   0.851   5.012
  588SOL    HW216463  10.464   1.000   5.022
  588SOL     MW16464  10.494   0.919   5.035
  589SOL     OW16465  11.530   3.461   3.144
  589SOL    HW116466  11.524   3.455   3.048
  589SOL    HW216467  11.623   3.454   3.162
  589SOL     MW16468  11.540   3.460   3.134
  590SOL     OW16469  11.538   3.088   3.553
  590SOL    HW116470  11.537   3.162   3.615
  590SOL    HW216471  11.588   3.120   3.480
  590SOL     MW16472  11.544   3.101   3.552
  591SOL     OW16473  10.247   1.015   5.443
  591SOL    HW116474  10.212   1.098   5.410
  591SOL    HW216475  10.172   0.973   5.484
  591SOL     MW16476  10.234   1.020   5.444
  592SOL     OW16477  12.733   2.568   5.142
  592SOL    HW116478  12.643   2.589   5.169
  592SOL    HW216479  12.764   2.510   5.210
  592SOL     MW16480  12.725   2.564   5.153
  593SOL     OW16481  11.938   2.026   3.216
  593SOL    HW116482  11.993   1.983   3.149
  593SOL    HW216483  11.909   1.954   3.271
  593SOL     MW16484  11.941   2.012   3.214
  594SOL     OW16485  13.243   1.418   6.212
  594SOL    HW116486  13.292   1.338   6.229
  594SOL    HW216487  13.162   1.388   6.171
  594SOL     MW16488  13.239   1.405   6.209
  595SOL     OW16489  11.043   2.299   4.771
  595SOL    HW116490  11.064   2.254   4.853
  595SOL    HW216491  10.955   2.332   4.784
  595SOL     MW16492  11.035   2.298   4.782
  596SOL     OW16493  10.355   0.925   3.404
  596SOL    HW116494  10.446   0.914   3.432
  596SOL    HW216495  10.311   0.847   3.434
  596SOL     MW16496  10.361   0.915   3.411
  597SOL     OW16497  11.532   1.700   3.639
  597SOL    HW116498  11.593   1.731   3.706
  597SOL    HW216499  11.446   1.720   3.673
  597SOL     MW16500  11.529   1.706   3.651
  598SOL     OW16501  11.531   3.217   3.233
  598SOL    HW116502  11.500   3.138   3.279
  598SOL    HW216503  11.468   3.284   3.255
  598SOL     MW16504  11.520   3.215   3.241
  599SOL     OW16505  10.241   2.777   5.176
  599SOL    HW116506  10.285   2.749   5.096
  599SOL    HW216507  10.299   2.842   5.213
  599SOL     MW16508  10.253   2.782   5.171
  600SOL     OW16509  13.207   0.165   4.610
  600SOL    HW116510  13.235   0.074   4.620
  600SOL    HW216511  13.270   0.202   4.548
  600SOL     MW16512  13.218   0.159   4.604
  601SOL     OW16513  12.625   2.126   4.182
  601SOL    HW116514  12.615   2.084   4.268
  601SOL    HW216515  12.558   2.085   4.129
  601SOL     MW16516  12.616   2.116   4.187
  602SOL     OW16517  11.965   2.160   3.460
  602SOL    HW116518  11.897   2.197   3.517
  602SOL    HW216519  12.045   2.205   3.487
  602SOL     MW16520  11.966   2.170   3.470
  603SOL     OW16521  10.164   0.992   4.544
  603SOL    HW116522  10.160   0.918   4.606
  603SOL    HW216523  10.092   1.048   4.570
  603SOL     MW16524  10.155   0.989   4.555
  604SOL     OW16525  10.526   2.963   6.141
  604SOL    HW116526  10.463   2.975   6.212
  604SOL    HW216527  10.491   3.014   6.069
  604SOL     MW16528  10.514   2.971   6.141
  605SOL     OW16529  10.055   0.636   6.230
  605SOL    HW116530  10.109   0.712   6.207
  605SOL    HW216531  10.089   0.566   6.176
  605SOL     MW16532  10.065   0.637   6.221
  606SOL     OW16533  11.094   1.877   3.578
  606SOL    HW116534  11.081   1.788   3.543
  606SOL    HW216535  11.085   1.934   3.503
  606SOL     MW16536  11.092   1.873   3.565
  607SOL     OW16537  13.335   2.858   3.647
  607SOL    HW116538  13.299   2.790   3.706
  607SOL    HW216539  13.274   2.930   3.654
  607SOL     MW16540  13.323   2.858   3.655
  608SOL     OW16541  10.502   1.975   6.445
  608SOL    HW116542  10.497   2.043   6.513
  608SOL    HW216543  10.546   1.902   6.488
  608SOL     MW16544  10.507   1.975   6.459
  609SOL     OW16545  11.284   1.136   4.268
  609SOL    HW116546  11.305   1.060   4.323
  609SOL    HW216547  11.194   1.157   4.290
  609SOL     MW16548  11.276   1.129   4.278
  610SOL     OW16549  12.476   3.196   4.233
  610SOL    HW116550  12.528   3.153   4.164
  610SOL    HW216551  12.493   3.288   4.221
  610SOL     MW16552  12.484   3.201   4.223
  611SOL     OW16553  12.331   1.987   5.110
  611SOL    HW116554  12.302   2.058   5.052
  611SOL    HW216555  12.303   1.908   5.065
  611SOL     MW16556  12.324   1.986   5.097
  612SOL     OW16557  12.068   1.189   5.531
  612SOL    HW116558  12.099   1.250   5.598
  612SOL    HW216559  12.120   1.111   5.545
  612SOL     MW16560  12.078   1.187   5.541
  613SOL     OW16561  12.192   0.487   4.433
  613SOL    HW116562  12.148   0.425   4.374
  613SOL    HW216563  12.283   0.483   4.408
  613SOL     MW16564  12.197   0.479   4.423
  614SOL     OW16565  12.055   1.598   4.939
  614SOL    HW116566  11.970   1.553   4.935
  614SOL    HW216567  12.033   1.690   4.935
  614SOL     MW16568  12.042   1.603   4.938
  615SOL     OW16569  11.112   1.921   4.354
  615SOL    HW116570  11.043   1.938   4.289
  615SOL    HW216571  11.078   1.957   4.435
  615SOL     MW16572  11.100   1.928   4.356
  616SOL     OW16573  11.713   0.389   4.826
  616SOL    HW116574  11.634   0.431   4.791
  616SOL    HW216575  11.694   0.296   4.824
  616SOL     MW16576  11.701   0.383   4.821
  617SOL     OW16577  12.761   2.368   6.149
  617SOL    HW116578  12.781   2.392   6.240
  617SOL    HW216579  12.840   2.386   6.102
  617SOL     MW16580  12.773   2.373   6.155
  618SOL     OW16581  11.549   1.684   3.989
  618SOL    HW116582  11.642   1.688   3.968
  618SOL    HW216583  11.511   1.634   3.918
  618SOL     MW16584  11.556   1.678   3.978
  619SOL     OW16585  10.930   1.019   3.380
  619SOL    HW116586  10.935   0.989   3.289
  619SOL    HW216587  10.876   1.096   3.377
  619SOL     MW16588  10.924   1.024   3.369
  620SOL     OW16589  11.108   2.670   4.755
  620SOL    HW116590  11.157   2.611   4.697
  620SOL    HW216591  11.135   2.757   4.729
  620SOL     MW16592  11.117   2.673   4.745
  621SOL     OW16593  13.233   1.916   5.114
  621SOL    HW116594  13.140   1.898   5.132
  621SOL    HW216595  13.255   1.855   5.045
  621SOL     MW16596  13.224   1.906   5.108
  622SOL     OW16597  12.842   0.791   5.687
  622SOL    HW116598  12.918   0.744   5.725
  622SOL    HW216599  12.868   0.809   5.598
  622SOL     MW16600  12.855   0.787   5.681
  623SOL     OW16601  11.476   0.426   5.837
  623SOL    HW116602  11.409   0.480   5.881
  623SOL    HW216603  11.468   0.448   5.746
  623SOL     MW16604  11.467   0.435   5.832
  624SOL     OW16605  11.172   2.342   6.018
  624SOL    HW116606  11.153   2.285   5.943
  624SOL    HW216607  11.217   2.416   5.980
  624SOL     MW16608  11.175   2.344   6.004
  625SOL     OW16609  12.798   0.070   4.684
  625SOL    HW116610  12.822   0.142   4.624
  625SOL    HW216611  12.709   0.049   4.661
  625SOL     MW16612  12.791   0.076   4.674
  626SOL     OW16613  12.513   1.607   4.688
  626SOL    HW116614  12.447   1.641   4.626
  626SOL    HW216615  12.496   1.654   4.768
  626SOL     MW16616  12.503   1.617   4.690
  627SOL     OW16617  10.666   3.218   3.662
  627SOL    HW116618  10.761   3.203   3.656
  627SOL    HW216619  10.654   3.302   3.619
  627SOL     MW16620  10.677   3.226   3.656
  628SOL     OW16621  10.586   0.598   3.575
  628SOL    HW116622  10.627   0.685   3.573
  628SOL    HW216623  10.526   0.601   3.648
  628SOL     MW16624  10.584   0.609   3.583
  629SOL     OW16625  13.208   1.865   3.689
  629SOL    HW116626  13.272   1.937   3.690
  629SOL    HW216627  13.261   1.786   3.690
  629SOL     MW16628  13.222   1.865   3.689
  630SOL     OW16629  12.476   1.125   4.374
  630SOL    HW116630  12.540   1.130   4.302
  630SOL    HW216631  12.502   1.049   4.424
  630SOL     MW16632  12.487   1.117   4.371
  631SOL     OW16633  10.585   2.483   3.637
  631SOL    HW116634  10.617   2.546   3.702
  631SOL    HW216635  10.634   2.404   3.655
  631SOL     MW16636  10.595   2.481   3.647
  632SOL     OW16637  12.868   3.392   3.612
  632SOL    HW116638  12.819   3.324   3.660
  632SOL    HW216639  12.804   3.460   3.597
  632SOL     MW16640  12.854   3.392   3.616
  633SOL     OW16641  12.326   1.982   5.358
  633SOL    HW116642  12.247   1.979   5.413
  633SOL    HW216643  12.343   1.891   5.336
  633SOL     MW16644  12.318   1.971   5.362
  634SOL     OW16645  11.169   1.040   3.982
  634SOL    HW116646  11.165   1.059   4.077
  634SOL    HW216647  11.202   0.951   3.977
  634SOL     MW16648  11.173   1.032   3.993
  635SOL     OW16649  12.117   1.621   3.326
  635SOL    HW116650  12.089   1.679   3.397
  635SOL    HW216651  12.055   1.550   3.328
  635SOL     MW16652  12.106   1.620   3.335
  636SOL     OW16653  11.940   2.490   3.404
  636SOL    HW116654  11.893   2.488   3.320
  636SOL    HW216655  12.007   2.423   3.395
  636SOL     MW16656  11.943   2.482   3.392
  637SOL     OW16657  12.373   1.178   5.004
  637SOL    HW116658  12.321   1.225   4.938
  637SOL    HW216659  12.352   1.087   4.990
  637SOL     MW16660  12.365   1.173   4.994
  638SOL     OW16661  13.053   0.484   3.329
  638SOL    HW116662  13.136   0.477   3.378
  638SOL    HW216663  13.070   0.553   3.265
  638SOL     MW16664  13.065   0.491   3.327
  639SOL     OW16665  11.765   2.188   3.342
  639SOL    HW116666  11.728   2.099   3.352
  639SOL    HW216667  11.697   2.245   3.375
  639SOL     MW16668  11.752   2.184   3.347
  640SOL     OW16669  11.128   3.106   4.267
  640SOL    HW116670  11.146   3.185   4.216
  640SOL    HW216671  11.034   3.097   4.265
  640SOL     MW16672  11.119   3.115   4.260
  641SOL     OW16673  12.815   1.503   3.539
  641SOL    HW116674  12.890   1.495   3.479
  641SOL    HW216675  12.777   1.587   3.518
  641SOL     MW16676  12.819   1.512   3.529
  642SOL     OW16677  11.797   3.295   4.871
  642SOL    HW116678  11.746   3.228   4.917
  642SOL    HW216679  11.878   3.251   4.849
  642SOL     MW16680  11.801   3.282   4.874
  643SOL     OW16681  10.673   1.640   3.806
  643SOL    HW116682  10.756   1.609   3.844
  643SOL    HW216683  10.625   1.675   3.880
  643SOL     MW16684  10.677   1.640   3.820
  644SOL     OW16685  12.882   1.741   6.087
  644SOL    HW116686  12.942   1.692   6.029
  644SOL    HW216687  12.898   1.832   6.067
  644SOL     MW16688  12.891   1.745   6.077
  645SOL     OW16689  10.568   1.922   4.739
  645SOL    HW116690  10.548   1.914   4.833
  645SOL    HW216691  10.587   2.014   4.727
  645SOL     MW16692  10.568   1.932   4.749
  646SOL     OW16693  10.681   3.144   5.153
  646SOL    HW116694  10.738   3.078   5.112
  646SOL    HW216695  10.607   3.094   5.185
  646SOL     MW16696  10.679   3.129   5.152
  647SOL     OW16697  10.943   0.888   4.702
  647SOL    HW116698  10.911   0.979   4.695
  647SOL    HW216699  10.889   0.849   4.770
  647SOL     MW16700  10.933   0.894   4.709
  648SOL     OW16701  10.941   2.236   5.443
  648SOL    HW116702  10.872   2.192   5.494
  648SOL    HW216703  10.981   2.296   5.505
  648SOL     MW16704  10.937   2.238   5.457
  649SOL     OW16705  12.606   2.097   5.763
  649SOL    HW116706  12.523   2.096   5.812
  649SOL    HW216707  12.662   2.038   5.811
  649SOL     MW16708  12.603   2.090   5.775
  650SOL     OW16709  11.205   1.280   3.930
  650SOL    HW116710  11.146   1.266   4.005
  650SOL    HW216711  11.146   1.290   3.856
  650SOL     MW16712  11.190   1.279   3.931
  651SOL     OW16713  11.413   2.250   6.466
  651SOL    HW116714  11.368   2.236   6.382
  651SOL    HW216715  11.385   2.337   6.493
  651SOL     MW16716  11.404   2.259   6.459
  652SOL     OW16717  12.334   2.901   6.030
  652SOL    HW116718  12.316   2.986   6.074
  652SOL    HW216719  12.290   2.837   6.085
  652SOL     MW16720  12.326   2.904   6.042
  653SOL     OW16721  11.647   1.513   3.691
  653SOL    HW116722  11.737   1.546   3.703
  653SOL    HW216723  11.618   1.494   3.780
  653SOL     MW16724  11.655   1.515   3.703
  654SOL     OW16725  10.538   0.429   4.607
  654SOL    HW116726  10.458   0.454   4.655
  654SOL    HW216727  10.609   0.447   4.667
  654SOL     MW16728  10.536   0.434   4.620
  655SOL     OW16729  10.763   1.923   6.510
  655SOL    HW116730  10.825   1.980   6.464
  655SOL    HW216731  10.755   1.847   6.454
  655SOL     MW16732  10.770   1.921   6.498
  656SOL     OW16733  12.111   2.682   4.677
  656SOL    HW116734  12.165   2.663   4.599
  656SOL    HW216735  12.024   2.695   4.642
  656SOL     MW16736  12.108   2.681   4.663
  657SOL     OW16737  10.795   1.487   3.415
  657SOL    HW116738  10.819   1.460   3.504
  657SOL    HW216739  10.717   1.436   3.396
  657SOL     MW16740  10.788   1.477   3.423
  658SOL     OW16741  10.637   1.767   3.202
  658SOL    HW116742  10.686   1.827   3.259
  658SOL    HW216743  10.668   1.681   3.225
  658SOL     MW16744  10.646   1.764   3.211
  659SOL     OW16745  12.132   1.063   5.293
  659SOL    HW116746  12.144   1.157   5.314
  659SOL    HW216747  12.041   1.056   5.271
  659SOL     MW16748  12.123   1.074   5.293
  660SOL     OW16749  11.044   2.987   5.748
  660SOL    HW116750  11.086   2.941   5.675
  660SOL    HW216751  11.045   3.078   5.723
  660SOL     MW16752  11.049   2.992   5.736
  661SOL     OW16753  11.053   0.531   6.446
  661SOL    HW116754  10.974   0.579   6.420
  661SOL    HW216755  11.067   0.469   6.376
  661SOL     MW16756  11.045   0.530   6.435
  662SOL     OW16757  10.244   2.794   4.119
  662SOL    HW116758  10.262   2.793   4.213
  662SOL    HW216759  10.294   2.721   4.085
  662SOL     MW16760  10.252   2.785   4.126
  663SOL     OW16761  10.103   1.653   4.428
  663SOL    HW116762  10.127   1.620   4.341
  663SOL    HW216763  10.186   1.674   4.469
  663SOL     MW16764  10.116   1.652   4.423
  664SOL     OW16765  12.435   3.378   5.006
  664SOL    HW116766  12.399   3.461   5.041
  664SOL    HW216767  12.509   3.406   4.952
  664SOL     MW16768  12.440   3.392   5.004
  665SOL     OW16769  13.241   2.637   6.510
  665SOL    HW116770  13.267   2.555   6.466
  665SOL    HW216771  13.240   2.701   6.440
  665SOL     MW16772  13.244   2.635   6.496
  666SOL     OW16773  12.266   2.880   4.041
  666SOL    HW116774  12.212   2.852   3.966
  666SOL    HW216775  12.351   2.844   4.022
  666SOL     MW16776  12.269   2.872   4.029
  667SOL     OW16777  11.169   2.499   4.886
  667SOL    HW116778  11.203   2.457   4.966
  667SOL    HW216779  11.075   2.485   4.891
  667SOL     MW16780  11.162   2.492   4.896
  668SOL     OW16781  12.806   2.279   4.429
  668SOL    HW116782  12.739   2.348   4.424
  668SOL    HW216783  12.865   2.310   4.497
  668SOL     MW16784  12.805   2.291   4.437
  669SOL     OW16785  12.308   2.327   4.009
  669SOL    HW116786  12.301   2.292   4.099
  669SOL    HW216787  12.219   2.329   3.977
  669SOL     MW16788  12.297   2.323   4.016
  670SOL     OW16789  11.802   2.163   5.186
  670SOL    HW116790  11.842   2.225   5.124
  670SOL    HW216791  11.710   2.167   5.166
  670SOL     MW16792  11.796   2.171   5.176
  671SOL     OW16793  11.866   1.107   6.024
  671SOL    HW116794  11.919   1.081   5.949
  671SOL    HW216795  11.800   1.166   5.988
  671SOL     MW16796  11.864   1.111   6.011
  672SOL     OW16797  10.095   1.416   3.898
  672SOL    HW116798  10.013   1.425   3.847
  672SOL    HW216799  10.163   1.438   3.837
  672SOL     MW16800  10.093   1.420   3.885
  673SOL     OW16801  12.480   2.949   4.552
  673SOL    HW116802  12.481   2.934   4.457
  673SOL    HW216803  12.439   3.033   4.562
  673SOL     MW16804  12.476   2.957   4.542
  674SOL     OW16805  12.464   1.941   4.860
  674SOL    HW116806  12.474   2.033   4.883
  674SOL    HW216807  12.526   1.895   4.916
  674SOL     MW16808  12.473   1.947   4.869
  675SOL     OW16809  10.093   2.320   5.658
  675SOL    HW116810  10.065   2.333   5.749
  675SOL    HW216811  10.188   2.321   5.662
  675SOL     MW16812  10.101   2.322   5.670
  676SOL     OW16813  11.030   0.716   5.523
  676SOL    HW116814  11.068   0.782   5.464
  676SOL    HW216815  10.936   0.733   5.520
  676SOL     MW16816  11.023   0.726   5.515
  677SOL     OW16817  10.821   1.531   4.127
  677SOL    HW116818  10.781   1.604   4.079
  677SOL    HW216819  10.756   1.462   4.124
  677SOL     MW16820  10.809   1.532   4.121
  678SOL     OW16821  11.837   2.535   5.818
  678SOL    HW116822  11.875   2.494   5.896
  678SOL    HW216823  11.908   2.537   5.755
  678SOL     MW16824  11.850   2.530   5.820
  679SOL     OW16825  12.242   0.577   4.133
  679SOL    HW116826  12.206   0.601   4.047
  679SOL    HW216827  12.168   0.541   4.180
  679SOL     MW16828  12.229   0.576   4.128
  680SOL     OW16829  12.723   2.728   5.425
  680SOL    HW116830  12.766   2.788   5.364
  680SOL    HW216831  12.667   2.675   5.370
  680SOL     MW16832  12.722   2.729   5.411
  681SOL     OW16833  11.421   0.284   6.359
  681SOL    HW116834  11.374   0.306   6.439
  681SOL    HW216835  11.378   0.335   6.291
  681SOL     MW16836  11.410   0.293   6.360
  682SOL     OW16837  11.952   0.287   4.654
  682SOL    HW116838  11.856   0.287   4.667
  682SOL    HW216839  11.975   0.379   4.655
  682SOL     MW16840  11.943   0.298   4.656
  683SOL     OW16841  11.882   0.892   4.726
  683SOL    HW116842  11.823   0.903   4.801
  683SOL    HW216843  11.923   0.977   4.716
  683SOL     MW16844  11.880   0.903   4.734
  684SOL     OW16845  12.580   0.061   5.329
  684SOL    HW116846  12.543  -0.000   5.393
  684SOL    HW216847  12.581   0.012   5.248
  684SOL     MW16848  12.576   0.048   5.327
  685SOL     OW16849  12.792   3.374   3.961
  685SOL    HW116850  12.764   3.438   3.895
  685SOL    HW216851  12.716   3.318   3.973
  685SOL     MW16852  12.779   3.375   3.955
  686SOL     OW16853  11.880   0.627   4.926
  686SOL    HW116854  11.825   0.680   4.867
  686SOL    HW216855  11.843   0.540   4.921
  686SOL     MW16856  11.868   0.623   4.918
  687SOL     OW16857  11.431   1.892   5.684
  687SOL    HW116858  11.380   1.854   5.756
  687SOL    HW216859  11.498   1.943   5.728
  687SOL     MW16860  11.433   1.893   5.698
  688SOL     OW16861  11.877   1.716   3.504
  688SOL    HW116862  11.947   1.739   3.565
  688SOL    HW216863  11.855   1.626   3.526
  688SOL     MW16864  11.883   1.708   3.514
  689SOL     OW16865  10.256   0.803   4.271
  689SOL    HW116866  10.265   0.839   4.182
  689SOL    HW216867  10.197   0.729   4.260
  689SOL     MW16868  10.250   0.798   4.259
  690SOL     OW16869  13.299   1.796   5.472
  690SOL    HW116870  13.293   1.727   5.405
  690SOL    HW216871  13.223   1.782   5.527
  690SOL     MW16872  13.289   1.786   5.470
  691SOL     OW16873  11.372   2.728   3.343
  691SOL    HW116874  11.415   2.815   3.347
  691SOL    HW216875  11.332   2.727   3.257
  691SOL     MW16876  11.373   2.739   3.334
  692SOL     OW16877  10.548   2.393   3.439
  692SOL    HW116878  10.550   2.304   3.476
  692SOL    HW216879  10.554   2.380   3.346
  692SOL     MW16880  10.549   2.381   3.433
  693SOL     OW16881  12.946   2.488   3.671
  693SOL    HW116882  12.974   2.562   3.616
  693SOL    HW216883  12.855   2.475   3.647
  693SOL     MW16884  12.939   2.496   3.661
  694SOL     OW16885  10.772   3.463   3.875
  694SOL    HW116886  10.795   3.390   3.818
  694SOL    HW216887  10.804   3.436   3.961
  694SOL     MW16888  10.778   3.451   3.878
  695SOL     OW16889  11.523   0.374   3.239
  695SOL    HW116890  11.555   0.317   3.167
  695SOL    HW216891  11.565   0.338   3.316
  695SOL     MW16892  11.532   0.363   3.239
  696SOL     OW16893  12.418   0.573   3.770
  696SOL    HW116894  12.513   0.585   3.781
  696SOL    HW216895  12.406   0.479   3.767
  696SOL     MW16896  12.429   0.564   3.771
  697SOL     OW16897  12.871   2.855   5.664
  697SOL    HW116898  12.967   2.868   5.661
  697SOL    HW216899  12.851   2.803   5.587
  697SOL     MW16900  12.880   2.851   5.655
  698SOL     OW16901  10.342   0.954   4.723
  698SOL    HW116902  10.377   0.909   4.800
  698SOL    HW216903  10.388   0.915   4.650
  698SOL     MW16904  10.352   0.944   4.724
  699SOL     OW16905  11.036   3.461   4.064
  699SOL    HW116906  11.000   3.373   4.046
  699SOL    HW216907  11.128   3.445   4.082
  699SOL     MW16908  11.043   3.448   4.063
  700SOL     OW16909  10.687   0.701   4.165
  700SOL    HW116910  10.623   0.761   4.125
  700SOL    HW216911  10.651   0.615   4.151
  700SOL     MW16912  10.675   0.698   4.159
  701SOL     OW16913  11.419   3.156   5.622
  701SOL    HW116914  11.429   3.151   5.526
  701SOL    HW216915  11.466   3.235   5.646
  701SOL     MW16916  11.426   3.165   5.613
  702SOL     OW16917  12.553   0.236   3.697
  702SOL    HW116918  12.554   0.332   3.699
  702SOL    HW216919  12.479   0.214   3.641
  702SOL     MW16920  12.545   0.245   3.691
  703SOL     OW16921  12.657   3.396   3.445
  703SOL    HW116922  12.727   3.432   3.389
  703SOL    HW216923  12.587   3.460   3.438
  703SOL     MW16924  12.657   3.408   3.437
  704SOL     OW16925  11.939   0.489   5.636
  704SOL    HW116926  11.925   0.476   5.730
  704SOL    HW216927  12.029   0.521   5.630
  704SOL     MW16928  11.948   0.491   5.647
  705SOL     OW16929  10.251   0.961   6.489
  705SOL    HW116930  10.299   0.881   6.511
  705SOL    HW216931  10.169   0.930   6.452
  705SOL     MW16932  10.247   0.948   6.487
  706SOL     OW16933  11.451   0.086   3.931
  706SOL    HW116934  11.496   0.099   3.846
  706SOL    HW216935  11.359   0.092   3.910
  706SOL     MW16936  11.446   0.088   3.918
  707SOL     OW16937  11.208   0.165   4.801
  707SOL    HW116938  11.304   0.166   4.809
  707SOL    HW216939  11.177   0.215   4.875
  707SOL     MW16940  11.216   0.171   4.811
  708SOL     OW16941  10.756   2.429   5.408
  708SOL    HW116942  10.786   2.467   5.491
  708SOL    HW216943  10.672   2.470   5.392
  708SOL     MW16944  10.750   2.439   5.416
  709SOL     OW16945  10.970   0.461   5.522
  709SOL    HW116946  10.920   0.521   5.579
  709SOL    HW216947  11.059   0.467   5.555
  709SOL     MW16948  10.974   0.469   5.533
  710SOL     OW16949  12.769   1.141   4.268
  710SOL    HW116950  12.785   1.047   4.252
  710SOL    HW216951  12.806   1.184   4.192
  710SOL     MW16952  12.775   1.135   4.257
  711SOL     OW16953  12.814   2.520   4.649
  711SOL    HW116954  12.799   2.465   4.726
  711SOL    HW216955  12.746   2.494   4.588
  711SOL     MW16956  12.804   2.510   4.651
  712SOL     OW16957  13.057   1.301   3.491
  712SOL    HW116958  12.982   1.301   3.430
  712SOL    HW216959  13.087   1.392   3.491
  712SOL     MW16960  13.051   1.312   3.484
  713SOL     OW16961  13.222   2.824   4.529
  713SOL    HW116962  13.198   2.889   4.595
  713SOL    HW216963  13.257   2.751   4.580
  713SOL     MW16964  13.224   2.823   4.543
  714SOL     OW16965  11.482   0.294   4.126
  714SOL    HW116966  11.539   0.352   4.075
  714SOL    HW216967  11.540   0.253   4.189
  714SOL     MW16968  11.496   0.296   4.127
  715SOL     OW16969  12.923   2.949   4.830
  715SOL    HW116970  12.849   2.924   4.773
  715SOL    HW216971  12.998   2.905   4.792
  715SOL     MW16972  12.922   2.941   4.818
  716SOL     OW16973  10.618   2.176   4.337
  716SOL    HW116974  10.573   2.161   4.253
  716SOL    HW216975  10.632   2.270   4.340
  716SOL     MW16976  10.614   2.185   4.327
  717SOL     OW16977  11.625   2.406   3.942
  717SOL    HW116978  11.635   2.501   3.946
  717SOL    HW216979  11.712   2.372   3.952
  717SOL     MW16980  11.636   2.413   3.944
  718SOL     OW16981  12.879   2.846   5.131
  718SOL    HW116982  12.867   2.750   5.126
  718SOL    HW216983  12.855   2.877   5.045
  718SOL     MW16984  12.875   2.838   5.121
  719SOL     OW16985  11.788   1.105   3.676
  719SOL    HW116986  11.741   1.039   3.624
  719SOL    HW216987  11.878   1.079   3.673
  719SOL     MW16988  11.793   1.094   3.669
  720SOL     OW16989  12.315   2.247   5.748
  720SOL    HW116990  12.337   2.294   5.829
  720SOL    HW216991  12.261   2.174   5.778
  720SOL     MW16992  12.311   2.244   5.762
  721SOL     OW16993  12.922   1.608   4.700
  721SOL    HW116994  12.880   1.537   4.650
  721SOL    HW216995  12.863   1.681   4.691
  721SOL     MW16996  12.910   1.608   4.693
  722SOL     OW16997  12.690   0.078   6.190
  722SOL    HW116998  12.732   0.142   6.248
  722SOL    HW216999  12.761   0.024   6.159
  722SOL     MW17000  12.703   0.080   6.194
  723SOL     OW17001  11.066   0.386   3.317
  723SOL    HW117002  11.037   0.351   3.402
  723SOL    HW217003  11.064   0.480   3.329
  723SOL     MW17004  11.062   0.393   3.329
  724SOL     OW17005  11.534   2.322   5.604
  724SOL    HW117006  11.484   2.401   5.579
  724SOL    HW217007  11.519   2.261   5.534
  724SOL     MW17008  11.526   2.325   5.593
  725SOL     OW17009  12.301   0.150   6.003
  725SOL    HW117010  12.341   0.193   5.926
  725SOL    HW217011  12.233   0.211   6.030
  725SOL     MW17012  12.298   0.163   5.996
  726SOL     OW17013  12.346   0.174   5.213
  726SOL    HW117014  12.300   0.091   5.229
  726SOL    HW217015  12.294   0.239   5.259
  726SOL     MW17016  12.334   0.172   5.221
  727SOL     OW17017  12.289   1.579   3.808
  727SOL    HW117018  12.246   1.656   3.770
  727SOL    HW217019  12.273   1.510   3.744
  727SOL     MW17020  12.282   1.580   3.796
  728SOL     OW17021  12.276   0.597   5.147
  728SOL    HW117022  12.254   0.644   5.228
  728SOL    HW217023  12.239   0.651   5.078
  728SOL     MW17024  12.269   0.609   5.149
  729SOL     OW17025  13.170   2.759   4.084
  729SOL    HW117026  13.216   2.790   4.005
  729SOL    HW217027  13.099   2.820   4.095
  729SOL     MW17028  13.167   2.770   4.076
  730SOL     OW17029  10.262   0.586   3.202
  730SOL    HW117030  10.253   0.627   3.115
  730SOL    HW217031  10.173   0.562   3.225
  730SOL     MW17032  10.250   0.588   3.194
  731SOL     OW17033  12.767   2.695   3.262
  731SOL    HW117034  12.686   2.664   3.304
  731SOL    HW217035  12.818   2.616   3.247
  731SOL     MW17036  12.763   2.682   3.266
  732SOL     OW17037  10.500   1.281   5.880
  732SOL    HW117038  10.413   1.264   5.843
  732SOL    HW217039  10.485   1.345   5.949
  732SOL     MW17040  10.488   1.287   5.884
  733SOL     OW17041  11.937   0.624   6.183
  733SOL    HW117042  12.024   0.646   6.150
  733SOL    HW217043  11.890   0.591   6.108
  733SOL     MW17044  11.942   0.623   6.170
  734SOL     OW17045  10.074   2.921   5.293
  734SOL    HW117046  10.126   2.862   5.348
  734SOL    HW217047  10.009   2.864   5.253
  734SOL     MW17048  10.073   2.907   5.295
  735SOL     OW17049  10.049   3.048   4.133
  735SOL    HW117050  10.055   2.953   4.122
  735SOL    HW217051  10.123   3.082   4.085
  735SOL     MW17052  10.059   3.041   4.126
  736SOL     OW17053  10.022   1.667   4.729
  736SOL    HW117054  10.024   1.686   4.634
  736SOL    HW217055  10.010   1.752   4.769
  736SOL     MW17056  10.021   1.680   4.722
  737SOL     OW17057  13.003   0.666   6.298
  737SOL    HW117058  12.910   0.643   6.291
  737SOL    HW217059  13.013   0.743   6.244
  737SOL     MW17060  12.993   0.672   6.291
  738SOL     OW17061  11.679   2.829   3.430
  738SOL    HW117062  11.689   2.792   3.342
  738SOL    HW217063  11.719   2.764   3.487
  738SOL     MW17064  11.685   2.817   3.426
  739SOL     OW17065  12.382   0.526   4.968
  739SOL    HW117066  12.430   0.609   4.977
  739SOL    HW217067  12.437   0.462   5.011
  739SOL     MW17068  12.395   0.529   4.974
  740SOL     OW17069  11.233   1.170   3.186
  740SOL    HW117070  11.282   1.246   3.151
  740SOL    HW217071  11.287   1.095   3.162
  740SOL     MW17072  11.246   1.170   3.179
  741SOL     OW17073  12.011   2.403   5.262
  741SOL    HW117074  11.927   2.359   5.278
  741SOL    HW217075  12.042   2.426   5.349
  741SOL     MW17076  12.005   2.400   5.274
  742SOL     OW17077  11.122   0.229   5.143
  742SOL    HW117078  11.069   0.174   5.085
  742SOL    HW217079  11.211   0.203   5.126
  742SOL     MW17080  11.126   0.219   5.134
  743SOL     OW17081  12.502   2.304   4.897
  743SOL    HW117082  12.550   2.237   4.847
  743SOL    HW217083  12.532   2.386   4.860
  743SOL     MW17084  12.512   2.306   4.886
  744SOL     OW17085  13.182   3.183   4.188
  744SOL    HW117086  13.188   3.233   4.270
  744SOL    HW217087  13.120   3.232   4.136
  744SOL     MW17088  13.175   3.195   4.192
  745SOL     OW17089  13.230   3.159   3.151
  745SOL    HW117090  13.260   3.120   3.068
  745SOL    HW217091  13.149   3.113   3.170
  745SOL     MW17092  13.224   3.148   3.143
  746SOL     OW17093  12.455   2.842   5.274
  746SOL    HW117094  12.493   2.838   5.186
  746SOL    HW217095  12.374   2.891   5.262
  746SOL     MW17096  12.450   2.847   5.262
  747SOL     OW17097  10.850   0.630   4.016
  747SOL    HW117098  10.776   0.649   3.957
  747SOL    HW217099  10.832   0.543   4.049
  747SOL     MW17100  10.839   0.622   4.012
  748SOL     OW17101  11.761   0.769   4.589
  748SOL    HW117102  11.697   0.720   4.536
  748SOL    HW217103  11.812   0.817   4.524
  748SOL     MW17104  11.759   0.768   4.575
  749SOL     OW17105  12.841   2.381   6.465
  749SOL    HW117106  12.839   2.473   6.438
  749SOL    HW217107  12.930   2.367   6.494
  749SOL     MW17108  12.851   2.390   6.466
  750SOL     OW17109  11.242   0.428   4.744
  750SOL    HW117110  11.204   0.365   4.682
  750SOL    HW217111  11.334   0.431   4.722
  750SOL     MW17112  11.248   0.421   4.734
  751SOL     OW17113  13.149   2.703   5.289
  751SOL    HW117114  13.141   2.629   5.229
  751SOL    HW217115  13.068   2.703   5.338
  751SOL     MW17116  13.139   2.694   5.288
  752SOL     OW17117  13.140   1.401   4.650
  752SOL    HW117118  13.217   1.352   4.679
  752SOL    HW217119  13.067   1.357   4.692
  752SOL     MW17120  13.141   1.390   4.659
  753SOL     OW17121  11.656   2.008   5.589
  753SOL    HW117122  11.609   1.949   5.529
  753SOL    HW217123  11.662   2.090   5.541
  753SOL     MW17124  11.651   2.011   5.576
  754SOL     OW17125  11.230   0.464   3.764
  754SOL    HW117126  11.223   0.557   3.740
  754SOL    HW217127  11.162   0.422   3.713
  754SOL     MW17128  11.221   0.471   3.755
  755SOL     OW17129  10.498   0.737   5.859
  755SOL    HW117130  10.497   0.760   5.953
  755SOL    HW217131  10.583   0.766   5.828
  755SOL     MW17132  10.508   0.743   5.867
  756SOL     OW17133  12.451   1.185   4.729
  756SOL    HW117134  12.377   1.141   4.686
  756SOL    HW217135  12.469   1.132   4.805
  756SOL     MW17136  12.444   1.174   4.733
  757SOL     OW17137  12.956   2.306   5.686
  757SOL    HW117138  12.981   2.233   5.744
  757SOL    HW217139  13.028   2.313   5.625
  757SOL     MW17140  12.967   2.298   5.686
  758SOL     OW17141  10.751   1.844   5.354
  758SOL    HW117142  10.804   1.873   5.279
  758SOL    HW217143  10.663   1.840   5.320
  758SOL     MW17144  10.747   1.847   5.341
  759SOL     OW17145  11.488   1.455   5.374
  759SOL    HW117146  11.552   1.390   5.344
  759SOL    HW217147  11.428   1.464   5.302
  759SOL     MW17148  11.489   1.448   5.362
  760SOL     OW17149  12.005   0.817   4.970
  760SOL    HW117150  12.024   0.883   4.902
  760SOL    HW217151  11.915   0.835   4.995
  760SOL     MW17152  11.997   0.827   4.964
  761SOL     OW17153  10.508   3.406   3.805
  761SOL    HW117154  10.579   3.460   3.770
  761SOL    HW217155  10.431   3.460   3.796
  761SOL     MW17156  10.507   3.419   3.799
  762SOL     OW17157  10.791   0.534   4.988
  762SOL    HW117158  10.759   0.620   5.016
  762SOL    HW217159  10.788   0.481   5.066
  762SOL     MW17160  10.786   0.538   5.000
  763SOL     OW17161  10.990   0.438   4.986
  763SOL    HW117162  11.075   0.446   5.030
  763SOL    HW217163  10.962   0.349   5.005
  763SOL     MW17164  10.997   0.428   4.994
  764SOL     OW17165  10.205   1.218   6.311
  764SOL    HW117166  10.155   1.271   6.375
  764SOL    HW217167  10.295   1.225   6.341
  764SOL     MW17168  10.209   1.225   6.323
  765SOL     OW17169  10.431   3.085   3.796
  765SOL    HW117170  10.366   3.118   3.734
  765SOL    HW217171  10.440   2.993   3.774
  765SOL     MW17172  10.424   3.078   3.786
  766SOL     OW17173  11.383   0.552   6.432
  766SOL    HW117174  11.299   0.513   6.457
  766SOL    HW217175  11.372   0.645   6.448
  766SOL     MW17176  11.371   0.558   6.437
  767SOL     OW17177  11.960   2.055   5.636
  767SOL    HW117178  11.866   2.066   5.621
  767SOL    HW217179  11.967   2.028   5.727
  767SOL     MW17180  11.950   2.053   5.645
  768SOL     OW17181  12.725   2.648   4.254
  768SOL    HW117182  12.759   2.604   4.176
  768SOL    HW217183  12.801   2.689   4.293
  768SOL     MW17184  12.738   2.648   4.249
  769SOL     OW17185  11.339   1.414   6.096
  769SOL    HW117186  11.318   1.489   6.153
  769SOL    HW217187  11.255   1.371   6.083
  769SOL     MW17188  11.326   1.418   6.101
  770SOL     OW17189  11.500   1.024   4.544
  770SOL    HW117190  11.469   1.100   4.595
  770SOL    HW217191  11.592   1.017   4.567
  770SOL     MW17192  11.507   1.032   4.553
  771SOL     OW17193  11.359   0.273   3.703
  771SOL    HW117194  11.292   0.253   3.770
  771SOL    HW217195  11.390   0.188   3.676
  771SOL     MW17196  11.354   0.260   3.708
  772SOL     OW17197  11.816   2.753   5.568
  772SOL    HW117198  11.903   2.793   5.577
  772SOL    HW217199  11.778   2.794   5.491
  772SOL     MW17200  11.822   2.762   5.560
  773SOL     OW17201  12.194   2.552   3.170
  773SOL    HW117202  12.209   2.460   3.191
  773SOL    HW217203  12.161   2.551   3.081
  773SOL     MW17204  12.192   2.541   3.162
  774SOL     OW17205  10.603   2.676   5.101
  774SOL    HW117206  10.598   2.599   5.159
  774SOL    HW217207  10.562   2.746   5.151
  774SOL     MW17208  10.598   2.675   5.114
  775SOL     OW17209  11.736   0.221   4.066
  775SOL    HW117210  11.738   0.131   4.101
  775SOL    HW217211  11.803   0.267   4.115
  775SOL     MW17212  11.744   0.216   4.076
  776SOL     OW17213  12.945   1.035   5.210
  776SOL    HW117214  12.914   0.948   5.239
  776SOL    HW217215  12.876   1.094   5.237
  776SOL     MW17216  12.933   1.031   5.217
  777SOL     OW17217  10.261   0.538   4.864
  777SOL    HW117218  10.283   0.522   4.771
  777SOL    HW217219  10.169   0.519   4.869
  777SOL     MW17220  10.253   0.534   4.853
  778SOL     OW17221  12.602   0.305   6.438
  778SOL    HW117222  12.686   0.280   6.397
  778SOL    HW217223  12.627   0.368   6.505
  778SOL     MW17224  12.615   0.309   6.441
  779SOL     OW17225  10.973   2.790   4.263
  779SOL    HW117226  10.914   2.824   4.331
  779SOL    HW217227  11.049   2.846   4.267
  779SOL     MW17228  10.975   2.800   4.272
  780SOL     OW17229  12.210   1.630   5.859
  780SOL    HW117230  12.161   1.638   5.777
  780SOL    HW217231  12.299   1.653   5.836
  780SOL     MW17232  12.215   1.633   5.847
  781SOL     OW17233  12.210   1.628   4.475
  781SOL    HW117234  12.236   1.690   4.543
  781SOL    HW217235  12.291   1.588   4.446
  781SOL     MW17236  12.223   1.631   4.480
  782SOL     OW17237  12.243   2.770   3.458
  782SOL    HW117238  12.279   2.708   3.523
  782SOL    HW217239  12.312   2.834   3.447
  782SOL     MW17240  12.255   2.770   3.465
  783SOL     OW17241  11.560   2.565   3.655
  783SOL    HW117242  11.490   2.596   3.713
  783SOL    HW217243  11.611   2.643   3.636
  783SOL     MW17244  11.558   2.578   3.659
  784SOL     OW17245  11.326   2.464   6.262
  784SOL    HW117246  11.266   2.470   6.187
  784SOL    HW217247  11.412   2.464   6.223
  784SOL     MW17248  11.329   2.465   6.248
  785SOL     OW17249  12.532   1.670   5.107
  785SOL    HW117250  12.601   1.731   5.134
  785SOL    HW217251  12.499   1.707   5.026
  785SOL     MW17252  12.537   1.682   5.101
  786SOL     OW17253  12.847   0.755   5.940
  786SOL    HW117254  12.790   0.833   5.940
  786SOL    HW217255  12.905   0.769   6.013
  786SOL     MW17256  12.847   0.766   5.949
  787SOL     OW17257  10.008   1.202   5.517
  787SOL    HW117258  10.048   1.133   5.570
  787SOL    HW217259  10.082   1.256   5.490
  787SOL     MW17260  10.022   1.200   5.520
  788SOL     OW17261  12.200   1.051   6.505
  788SOL    HW117262  12.179   1.145   6.510
  788SOL    HW217263  12.117   1.009   6.489
  788SOL     MW17264  12.188   1.058   6.504
  789SOL     OW17265  11.578   1.271   3.660
  789SOL    HW117266  11.483   1.262   3.674
  789SOL    HW217267  11.614   1.274   3.748
  789SOL     MW17268  11.571   1.270   3.672
  790SOL     OW17269  11.681   2.477   4.503
  790SOL    HW117270  11.679   2.449   4.595
  790SOL    HW217271  11.764   2.522   4.494
  790SOL     MW17272  11.691   2.479   4.513
  791SOL     OW17273  12.556   3.391   3.709
  791SOL    HW117274  12.619   3.460   3.731
  791SOL    HW217275  12.604   3.310   3.724
  791SOL     MW17276  12.570   3.390   3.714
  792SOL     OW17277  12.870   0.269   3.525
  792SOL    HW117278  12.778   0.290   3.538
  792SOL    HW217279  12.868   0.187   3.476
  792SOL     MW17280  12.859   0.262   3.521
  793SOL     OW17281  12.174   0.751   6.404
  793SOL    HW117282  12.139   0.698   6.332
  793SOL    HW217283  12.149   0.703   6.482
  793SOL     MW17284  12.167   0.739   6.404
  794SOL     OW17285  10.251   0.774   5.404
  794SOL    HW117286  10.314   0.784   5.477
  794SOL    HW217287  10.242   0.680   5.394
  794SOL     MW17288  10.258   0.764   5.411
  795SOL     OW17289  11.818   1.773   3.050
  795SOL    HW117290  11.795   1.761   3.143
  795SOL    HW217291  11.913   1.775   3.050
  795SOL     MW17292  11.827   1.772   3.062
  796SOL     OW17293  13.026   2.548   5.929
  796SOL    HW117294  13.073   2.539   6.012
  796SOL    HW217295  12.955   2.608   5.949
  796SOL     MW17296  13.023   2.554   5.941
  797SOL     OW17297  12.639   2.986   6.250
  797SOL    HW117298  12.681   2.921   6.192
  797SOL    HW217299  12.685   3.067   6.232
  797SOL     MW17300  12.649   2.987   6.241
  798SOL     OW17301  11.226   1.958   6.066
  798SOL    HW117302  11.197   2.043   6.031
  798SOL    HW217303  11.251   1.909   5.988
  798SOL     MW17304  11.225   1.962   6.052
  799SOL     OW17305  10.950   0.435   5.232
  799SOL    HW117306  11.026   0.430   5.291
  799SOL    HW217307  10.886   0.378   5.273
  799SOL     MW17308  10.951   0.427   5.244
  800SOL     OW17309  12.913   3.020   4.567
  800SOL    HW117310  12.911   3.086   4.637
  800SOL    HW217311  12.998   2.978   4.578
  800SOL     MW17312  12.923   3.023   4.577
  801SOL     OW17313  11.405   1.250   5.256
  801SOL    HW117314  11.348   1.248   5.179
  801SOL    HW217315  11.440   1.162   5.262
  801SOL     MW17316  11.402   1.240   5.247
  802SOL     OW17317  11.879   1.252   5.093
  802SOL    HW117318  11.853   1.309   5.166
  802SOL    HW217319  11.953   1.203   5.127
  802SOL     MW17320  11.884   1.253   5.106
  803SOL     OW17321  12.531   3.126   6.086
  803SOL    HW117322  12.530   3.035   6.055
  803SOL    HW217323  12.447   3.161   6.057
  803SOL     MW17324  12.521   3.119   6.079
  804SOL     OW17325  12.412   0.139   6.255
  804SOL    HW117326  12.404   0.208   6.189
  804SOL    HW217327  12.325   0.101   6.260
  804SOL     MW17328  12.401   0.143   6.247
  805SOL     OW17329  11.819   1.592   5.470
  805SOL    HW117330  11.801   1.505   5.509
  805SOL    HW217331  11.740   1.642   5.486
  805SOL     MW17332  11.807   1.587   5.476
  806SOL     OW17333  12.715   1.216   3.567
  806SOL    HW117334  12.729   1.147   3.501
  806SOL    HW217335  12.781   1.281   3.547
  806SOL     MW17336  12.724   1.215   3.556
  807SOL     OW17337  11.127   3.334   5.232
  807SOL    HW117338  11.075   3.372   5.160
  807SOL    HW217339  11.143   3.245   5.204
  807SOL     MW17340  11.123   3.328   5.220
  808SOL     OW17341  12.612   2.341   5.135
  808SOL    HW117342  12.579   2.342   5.226
  808SOL    HW217343  12.554   2.401   5.089
  808SOL     MW17344  12.601   2.348   5.141
  809SOL     OW17345  10.537   2.355   5.599
  809SOL    HW117346  10.469   2.357   5.667
  809SOL    HW217347  10.614   2.392   5.641
  809SOL     MW17348  10.538   2.359   5.612
  810SOL     OW17349  12.748   1.363   4.567
  810SOL    HW117350  12.683   1.344   4.498
  810SOL    HW217351  12.804   1.287   4.568
  810SOL     MW17352  12.746   1.351   4.559
  811SOL     OW17353  10.913   1.330   6.437
  811SOL    HW117354  10.866   1.320   6.354
  811SOL    HW217355  10.845   1.333   6.503
  811SOL     MW17356  10.899   1.329   6.435
  812SOL     OW17357  13.057   1.894   5.915
  812SOL    HW117358  13.146   1.888   5.951
  812SOL    HW217359  13.045   1.812   5.869
  812SOL     MW17360  13.067   1.883   5.914
  813SOL     OW17361  12.039   0.635   3.906
  813SOL    HW117362  12.079   0.720   3.888
  813SOL    HW217363  11.982   0.619   3.832
  813SOL     MW17364  12.037   0.643   3.895
  814SOL     OW17365  11.216   3.209   4.489
  814SOL    HW117366  11.208   3.290   4.437
  814SOL    HW217367  11.131   3.167   4.479
  814SOL     MW17368  11.205   3.214   4.481
  815SOL     OW17369  11.210   0.894   6.272
  815SOL    HW117370  11.121   0.866   6.295
  815SOL    HW217371  11.265   0.819   6.293
  815SOL     MW17372  11.206   0.882   6.277
  816SOL     OW17373  10.964   3.090   6.495
  816SOL    HW117374  10.954   3.101   6.400
  816SOL    HW217375  10.945   2.998   6.510
  816SOL     MW17376  10.960   3.080   6.486
  817SOL     OW17377  11.023   2.189   6.121
  817SOL    HW117378  10.972   2.259   6.078
  817SOL    HW217379  10.958   2.135   6.164
  817SOL     MW17380  11.009   2.191   6.121
  818SOL     OW17381  13.063   3.212   5.908
  818SOL    HW117382  13.139   3.244   5.859
  818SOL    HW217383  13.070   3.254   5.993
  818SOL     MW17384  13.073   3.221   5.912
  819SOL     OW17385  10.609   1.369   5.640
  819SOL    HW117386  10.589   1.442   5.700
  819SOL    HW217387  10.624   1.295   5.697
  819SOL     MW17388  10.608   1.369   5.654
  820SOL     OW17389  13.091   2.628   5.009
  820SOL    HW117390  13.173   2.678   5.016
  820SOL    HW217391  13.027   2.694   4.984
  820SOL     MW17392  13.093   2.642   5.006
  821SOL     OW17393  10.399   2.074   6.280
  821SOL    HW117394  10.446   2.151   6.246
  821SOL    HW217395  10.429   2.002   6.226
  821SOL     MW17396  10.408   2.075   6.270
  822SOL     OW17397  11.851   1.716   4.213
  822SOL    HW117398  11.841   1.628   4.176
  822SOL    HW217399  11.772   1.762   4.185
  822SOL     MW17400  11.840   1.711   4.205
  823SOL     OW17401  10.126   3.008   6.403
  823SOL    HW117402  10.067   2.938   6.373
  823SOL    HW217403  10.084   3.088   6.375
  823SOL     MW17404  10.114   3.009   6.396
  824SOL     OW17405  13.205   1.719   4.706
  824SOL    HW117406  13.235   1.628   4.718
  824SOL    HW217407  13.123   1.722   4.755
  824SOL     MW17408  13.199   1.708   4.714
  825SOL     OW17409  10.178   1.573   4.082
  825SOL    HW117410  10.234   1.622   4.143
  825SOL    HW217411  10.238   1.537   4.018
  825SOL     MW17412  10.192   1.575   4.082
  826SOL     OW17413  11.391   1.374   4.480
  826SOL    HW117414  11.447   1.300   4.504
  826SOL    HW217415  11.452   1.445   4.464
  826SOL     MW17416  11.405   1.373   4.481
  827SOL     OW17417  12.362   0.186   5.464
  827SOL    HW117418  12.285   0.217   5.513
  827SOL    HW217419  12.363   0.092   5.479
  827SOL     MW17420  12.353   0.179   5.471
  828SOL     OW17421  10.544   3.109   3.984
  828SOL    HW117422  10.479   3.069   4.043
  828SOL    HW217423  10.517   3.199   3.977
  828SOL     MW17424  10.533   3.115   3.990
  829SOL     OW17425  11.184   0.844   3.413
  829SOL    HW117426  11.118   0.892   3.361
  829SOL    HW217427  11.244   0.811   3.348
  829SOL     MW17428  11.183   0.846   3.399
  830SOL     OW17429  11.934   1.740   4.649
  830SOL    HW117430  11.929   1.719   4.743
  830SOL    HW217431  12.026   1.735   4.629
  830SOL     MW17432  11.944   1.736   4.658
  831SOL     OW17433  12.758   2.479   5.738
  831SOL    HW117434  12.817   2.513   5.807
  831SOL    HW217435  12.748   2.553   5.679
  831SOL     MW17436  12.764   2.492   5.739
  832SOL     OW17437  10.506   1.230   4.596
  832SOL    HW117438  10.533   1.140   4.573
  832SOL    HW217439  10.454   1.258   4.521
  832SOL     MW17440  10.503   1.222   4.584
  833SOL     OW17441  10.618   2.846   4.218
  833SOL    HW117442  10.608   2.814   4.128
  833SOL    HW217443  10.704   2.886   4.220
  833SOL     MW17444  10.627   2.847   4.207
  834SOL     OW17445  12.005   3.231   6.007
  834SOL    HW117446  11.972   3.185   5.929
  834SOL    HW217447  12.093   3.197   6.019
  834SOL     MW17448  12.012   3.222   5.999
  835SOL     OW17449  11.006   3.391   3.600
  835SOL    HW117450  11.027   3.297   3.606
  835SOL    HW217451  10.968   3.412   3.684
  835SOL     MW17452  11.004   3.382   3.611
  836SOL     OW17453  12.909   1.375   3.883
  836SOL    HW117454  12.964   1.347   3.809
  836SOL    HW217455  12.841   1.309   3.887
  836SOL     MW17456  12.908   1.364   3.874
  837SOL     OW17457  12.107   2.998   3.067
  837SOL    HW117458  12.173   3.033   3.128
  837SOL    HW217459  12.127   2.905   3.061
  837SOL     MW17460  12.117   2.991   3.074
  838SOL     OW17461  10.688   3.440   3.408
  838SOL    HW117462  10.658   3.348   3.404
  838SOL    HW217463  10.709   3.461   3.318
  838SOL     MW17464  10.687   3.431   3.397
  839SOL     OW17465  10.996   3.396   5.510
  839SOL    HW117466  10.952   3.463   5.563
  839SOL    HW217467  10.976   3.421   5.420
  839SOL     MW17468  10.989   3.407   5.506
  840SOL     OW17469  11.107   0.044   5.746
  840SOL    HW117470  11.180   0.013   5.801
  840SOL    HW217471  11.031   0.000   5.783
  840SOL     MW17472  11.107   0.035   5.757
  841SOL     OW17473  13.166   0.876   5.736
  841SOL    HW117474  13.138   0.784   5.745
  841SOL    HW217475  13.207   0.880   5.651
  841SOL     MW17476  13.167   0.865   5.727
  842SOL     OW17477  11.246   1.248   5.736
  842SOL    HW117478  11.278   1.168   5.694
  842SOL    HW217479  11.325   1.298   5.753
  842SOL     MW17480  11.259   1.244   5.733
  843SOL     OW17481  10.677   0.672   4.423
  843SOL    HW117482  10.718   0.673   4.510
  843SOL    HW217483  10.699   0.587   4.388
  843SOL     MW17484  10.685   0.662   4.430
  844SOL     OW17485  11.748   0.585   5.426
  844SOL    HW117486  11.735   0.559   5.334
  844SOL    HW217487  11.754   0.503   5.472
  844SOL     MW17488  11.747   0.572   5.420
  845SOL     OW17489  12.297   2.355   3.467
  845SOL    HW117490  12.369   2.344   3.405
  845SOL    HW217491  12.227   2.393   3.415
  845SOL     MW17492  12.297   2.358   3.454
  846SOL     OW17493  10.852   2.730   6.451
  846SOL    HW117494  10.843   2.689   6.364
  846SOL    HW217495  10.857   2.657   6.511
  846SOL     MW17496  10.852   2.716   6.447
  847SOL     OW17497  12.910   2.412   4.149
  847SOL    HW117498  12.976   2.476   4.121
  847SOL    HW217499  12.848   2.410   4.077
  847SOL     MW17500  12.911   2.420   4.137
  848SOL     OW17501  11.277   0.987   5.364
  848SOL    HW117502  11.210   1.044   5.404
  848SOL    HW217503  11.358   1.015   5.404
  848SOL     MW17504  11.278   0.998   5.374
  849SOL     OW17505  13.266   1.974   4.597
  849SOL    HW117506  13.321   2.049   4.623
  849SOL    HW217507  13.327   1.911   4.561
  849SOL     MW17508  13.280   1.975   4.596
  850SOL     OW17509  12.977   0.969   3.118
  850SOL    HW117510  13.062   0.932   3.092
  850SOL    HW217511  12.931   0.897   3.159
  850SOL     MW17512  12.982   0.956   3.120
  851SOL     OW17513  12.530   1.969   6.327
  851SOL    HW117514  12.566   1.906   6.390
  851SOL    HW217515  12.438   1.973   6.348
  851SOL     MW17516  12.524   1.962   6.337
  852SOL     OW17517  12.575   2.006   5.526
  852SOL    HW117518  12.501   1.956   5.491
  852SOL    HW217519  12.608   1.952   5.598
  852SOL     MW17520  12.570   1.993   5.530
  853SOL     OW17521  12.683   2.421   5.514
  853SOL    HW117522  12.629   2.359   5.563
  853SOL    HW217523  12.620   2.483   5.478
  853SOL     MW17524  12.669   2.421   5.516
  854SOL     OW17525  11.602   1.178   5.054
  854SOL    HW117526  11.606   1.231   5.134
  854SOL    HW217527  11.517   1.136   5.057
  854SOL     MW17528  11.593   1.180   5.064
  855SOL     OW17529  10.637   2.738   5.392
  855SOL    HW117530  10.712   2.721   5.333
  855SOL    HW217531  10.570   2.678   5.362
  855SOL     MW17532  10.639   2.729   5.381
  856SOL     OW17533  10.908   3.160   5.875
  856SOL    HW117534  10.942   3.080   5.918
  856SOL    HW217535  10.814   3.148   5.872
  856SOL     MW17536  10.901   3.149   5.880
  857SOL     OW17537  12.639   2.763   4.526
  857SOL    HW117538  12.696   2.834   4.494
  857SOL    HW217539  12.670   2.686   4.481
  857SOL     MW17540  12.650   2.763   4.517
  858SOL     OW17541  11.951   0.550   6.504
  858SOL    HW117542  12.002   0.552   6.422
  858SOL    HW217543  11.921   0.461   6.511
  858SOL     MW17544  11.954   0.540   6.495
  859SOL     OW17545  11.051   1.451   5.281
  859SOL    HW117546  11.085   1.502   5.207
  859SOL    HW217547  11.024   1.517   5.344
  859SOL     MW17548  11.052   1.465   5.280
  860SOL     OW17549  11.748   3.175   3.144
  860SOL    HW117550  11.720   3.107   3.205
  860SOL    HW217551  11.762   3.252   3.198
  860SOL     MW17552  11.746   3.176   3.158
  861SOL     OW17553  10.800   2.747   3.533
  861SOL    HW117554  10.704   2.757   3.534
  861SOL    HW217555  10.813   2.665   3.486
  861SOL     MW17556  10.790   2.738   3.527
  862SOL     OW17557  10.821   0.412   4.714
  862SOL    HW117558  10.885   0.355   4.672
  862SOL    HW217559  10.854   0.424   4.802
  862SOL     MW17560  10.833   0.407   4.720
  863SOL     OW17561  12.678   3.086   4.642
  863SOL    HW117562  12.666   2.992   4.663
  863SOL    HW217563  12.711   3.124   4.722
  863SOL     MW17564  12.680   3.079   4.654
  864SOL     OW17565  12.680   0.237   4.198
  864SOL    HW117566  12.656   0.163   4.141
  864SOL    HW217567  12.639   0.312   4.156
  864SOL     MW17568  12.672   0.237   4.186
  865SOL     OW17569  11.171   1.922   5.498
  865SOL    HW117570  11.233   1.885   5.434
  865SOL    HW217571  11.171   2.015   5.479
  865SOL     MW17572  11.178   1.928   5.488
  866SOL     OW17573  11.030   1.786   5.814
  866SOL    HW117574  11.023   1.881   5.805
  866SOL    HW217575  11.103   1.773   5.873
  866SOL     MW17576  11.038   1.796   5.820
  867SOL     OW17577  11.183   1.828   3.073
  867SOL    HW117578  11.232   1.911   3.069
  867SOL    HW217579  11.247   1.762   3.050
  867SOL     MW17580  11.197   1.830   3.070
  868SOL     OW17581  11.800   0.694   5.846
  868SOL    HW117582  11.743   0.771   5.842
  868SOL    HW217583  11.778   0.653   5.929
  868SOL     MW17584  11.790   0.699   5.855
  869SOL     OW17585  13.066   1.163   6.228
  869SOL    HW117586  13.095   1.099   6.293
  869SOL    HW217587  12.977   1.183   6.253
  869SOL     MW17588  13.059   1.158   6.239
  870SOL     OW17589  13.045   0.397   6.317
  870SOL    HW117590  12.981   0.422   6.385
  870SOL    HW217591  12.995   0.347   6.254
  870SOL     MW17592  13.032   0.394   6.318
  871SOL     OW17593  11.495   2.083   3.158
  871SOL    HW117594  11.420   2.117   3.108
  871SOL    HW217595  11.480   2.115   3.247
  871SOL     MW17596  11.484   2.091   3.163
  872SOL     OW17597  11.283   0.620   5.999
  872SOL    HW117598  11.206   0.563   6.004
  872SOL    HW217599  11.310   0.632   6.089
  872SOL     MW17600  11.277   0.614   6.010
  873SOL     OW17601  11.534   1.880   3.267
  873SOL    HW117602  11.473   1.846   3.333
  873SOL    HW217603  11.620   1.865   3.304
  873SOL     MW17604  11.536   1.874   3.280
  874SOL     OW17605  11.468   0.569   5.469
  874SOL    HW117606  11.539   0.622   5.508
  874SOL    HW217607  11.428   0.526   5.544
  874SOL     MW17608  11.472   0.570   5.483
  875SOL     OW17609  11.252   2.074   3.388
  875SOL    HW117610  11.321   2.141   3.397
  875SOL    HW217611  11.172   2.122   3.402
  875SOL     MW17612  11.251   2.088   3.391
  876SOL     OW17613  12.236   2.553   5.470
  876SOL    HW117614  12.288   2.515   5.541
  876SOL    HW217615  12.146   2.547   5.502
  876SOL     MW17616  12.231   2.548   5.483
  877SOL     OW17617  10.486   2.458   5.863
  877SOL    HW117618  10.478   2.553   5.873
  877SOL    HW217619  10.492   2.425   5.952
  877SOL     MW17620  10.486   2.465   5.875
  878SOL     OW17621  10.658   3.462   5.996
  878SOL    HW117622  10.666   3.428   6.085
  878SOL    HW217623  10.566   3.454   5.976
  878SOL     MW17624  10.648   3.457   6.004
  879SOL     OW17625  11.691   0.184   5.681
  879SOL    HW117626  11.758   0.117   5.665
  879SOL    HW217627  11.653   0.199   5.595
  879SOL     MW17628  11.694   0.177   5.668
  880SOL     OW17629  10.257   1.185   6.001
  880SOL    HW117630  10.268   1.153   6.091
  880SOL    HW217631  10.260   1.280   6.010
  880SOL     MW17632  10.259   1.193   6.013
  881SOL     OW17633  12.641   1.327   4.167
  881SOL    HW117634  12.546   1.340   4.157
  881SOL    HW217635  12.659   1.357   4.255
  881SOL     MW17636  12.631   1.332   4.176
  882SOL     OW17637  12.914   3.091   4.056
  882SOL    HW117638  12.853   3.144   4.107
  882SOL    HW217639  12.970   3.051   4.121
  882SOL     MW17640  12.913   3.093   4.070
  883SOL     OW17641  12.507   2.831   4.254
  883SOL    HW117642  12.447   2.756   4.256
  883SOL    HW217643  12.579   2.804   4.309
  883SOL     MW17644  12.508   2.818   4.260
  884SOL     OW17645  10.959   3.315   5.725
  884SOL    HW117646  11.008   3.361   5.794
  884SOL    HW217647  10.870   3.349   5.733
  884SOL     MW17648  10.954   3.325   5.734
  885SOL     OW17649  12.303   2.850   3.695
  885SOL    HW117650  12.390   2.846   3.653
  885SOL    HW217651  12.260   2.922   3.651
  885SOL     MW17652  12.309   2.858   3.684
  886SOL     OW17653  13.154   0.510   6.510
  886SOL    HW117654  13.240   0.554   6.510
  886SOL    HW217655  13.175   0.419   6.494
  886SOL     MW17656  13.167   0.504   6.508
  887SOL     OW17657  11.672   1.723   4.506
  887SOL    HW117658  11.757   1.746   4.467
  887SOL    HW217659  11.648   1.800   4.556
  887SOL     MW17660  11.680   1.735   4.507
  888SOL     OW17661  10.299   1.796   5.713
  888SOL    HW117662  10.342   1.838   5.788
  888SOL    HW217663  10.266   1.714   5.748
  888SOL     MW17664  10.301   1.791   5.727
  889SOL     OW17665  12.082   1.899   5.034
  889SOL    HW117666  11.987   1.890   5.018
  889SOL    HW217667  12.116   1.929   4.951
  889SOL     MW17668  12.074   1.901   5.022
  890SOL     OW17669  11.130   0.019   4.628
  890SOL    HW117670  11.081  -0.001   4.548
  890SOL    HW217671  11.063   0.039   4.693
  890SOL     MW17672  11.116   0.019   4.626
  891SOL     OW17673  12.691   2.809   3.073
  891SOL    HW117674  12.690   2.716   3.050
  891SOL    HW217675  12.623   2.818   3.139
  891SOL     MW17676  12.683   2.799   3.078
  892SOL     OW17677  10.372   1.916   4.641
  892SOL    HW117678  10.405   1.999   4.605
  892SOL    HW217679  10.299   1.942   4.696
  892SOL     MW17680  10.367   1.929   4.643
  893SOL     OW17681  11.326   1.177   6.272
  893SOL    HW117682  11.268   1.224   6.333
  893SOL    HW217683  11.412   1.213   6.289
  893SOL     MW17684  11.329   1.187   6.282
  894SOL     OW17685  12.616   0.062   6.482
  894SOL    HW117686  12.553  -0.000   6.444
  894SOL    HW217687  12.691   0.009   6.505
  894SOL     MW17688  12.617   0.048   6.480
  895SOL     OW17689  10.888   2.041   3.392
  895SOL    HW117690  10.920   2.027   3.302
  895SOL    HW217691  10.955   2.096   3.432
  895SOL     MW17692  10.900   2.046   3.386
  896SOL     OW17693  10.851   0.114   4.471
  896SOL    HW117694  10.927   0.153   4.515
  896SOL    HW217695  10.828   0.039   4.524
  896SOL     MW17696  10.858   0.110   4.483
  897SOL     OW17697  12.487   0.622   6.168
  897SOL    HW117698  12.498   0.716   6.150
  897SOL    HW217699  12.393   0.610   6.172
  897SOL     MW17700  12.477   0.632   6.166
  898SOL     OW17701  11.099   0.742   3.876
  898SOL    HW117702  11.036   0.676   3.908
  898SOL    HW217703  11.052   0.790   3.810
  898SOL     MW17704  11.085   0.739   3.872
  899SOL     OW17705  12.818   0.044   3.767
  899SOL    HW117706  12.778   0.064   3.682
  899SOL    HW217707  12.746   0.009   3.819
  899SOL     MW17708  12.804   0.042   3.763
  900SOL     OW17709  12.466   2.832   6.296
  900SOL    HW117710  12.423   2.850   6.380
  900SOL    HW217711  12.436   2.902   6.239
  900SOL     MW17712  12.457   2.842   6.299
  901SOL     OW17713  11.769   0.264   3.279
  901SOL    HW117714  11.833   0.334   3.263
  901SOL    HW217715  11.802   0.219   3.356
  901SOL     MW17716  11.781   0.267   3.286
  902SOL     OW17717  10.476   1.668   5.828
  902SOL    HW117718  10.463   1.615   5.749
  902SOL    HW217719  10.566   1.654   5.852
  902SOL     MW17720  10.485   1.660   5.821
  903SOL     OW17721  12.069   1.306   4.855
  903SOL    HW117722  12.042   1.255   4.933
  903SOL    HW217723  12.121   1.377   4.891
  903SOL     MW17724  12.072   1.308   4.869
  904SOL     OW17725  11.912   3.300   3.831
  904SOL    HW117726  11.984   3.283   3.892
  904SOL    HW217727  11.836   3.312   3.887
  904SOL     MW17728  11.912   3.299   3.845
  905SOL     OW17729  12.780   2.625   6.227
  905SOL    HW117730  12.859   2.590   6.183
  905SOL    HW217731  12.811   2.651   6.312
  905SOL     MW17732  12.794   2.624   6.231
  906SOL     OW17733  11.901   2.297   6.131
  906SOL    HW117734  11.916   2.209   6.096
  906SOL    HW217735  11.958   2.302   6.207
  906SOL     MW17736  11.910   2.287   6.136
  907SOL     OW17737  12.265   3.155   5.497
  907SOL    HW117738  12.345   3.105   5.514
  907SOL    HW217739  12.256   3.155   5.403
  907SOL     MW17740  12.273   3.148   5.488
  908SOL     OW17741  12.316   1.554   6.204
  908SOL    HW117742  12.362   1.543   6.121
  908SOL    HW217743  12.264   1.633   6.192
  908SOL     MW17744  12.315   1.562   6.192
  909SOL     OW17745  11.388   1.628   5.923
  909SOL    HW117746  11.441   1.566   5.974
  909SOL    HW217747  11.299   1.612   5.951
  909SOL     MW17748  11.384   1.619   5.932
  910SOL     OW17749  10.598   1.525   5.313
  910SOL    HW117750  10.642   1.488   5.236
  910SOL    HW217751  10.550   1.599   5.279
  910SOL     MW17752  10.598   1.530   5.300
  911SOL     OW17753  10.470   3.375   6.170
  911SOL    HW117754  10.483   3.307   6.237
  911SOL    HW217755  10.379   3.399   6.178
  911SOL     MW17756  10.461   3.370   6.179
  912SOL     OW17757  12.240   0.829   4.741
  912SOL    HW117758  12.201   0.745   4.716
  912SOL    HW217759  12.228   0.833   4.835
  912SOL     MW17760  12.234   0.819   4.749
  913SOL     OW17761  10.920   0.550   4.574
  913SOL    HW117762  10.974   0.526   4.499
  913SOL    HW217763  10.925   0.645   4.577
  913SOL     MW17764  10.927   0.559   4.565
  914SOL     OW17765  12.451   0.836   3.276
  914SOL    HW117766  12.544   0.843   3.253
  914SOL    HW217767  12.445   0.754   3.323
  914SOL     MW17768  12.461   0.827   3.279
  915SOL     OW17769  11.325   3.050   3.705
  915SOL    HW117770  11.316   2.956   3.718
  915SOL    HW217771  11.253   3.074   3.649
  915SOL     MW17772  11.316   3.042   3.700
  916SOL     OW17773  11.413   3.276   3.853
  916SOL    HW117774  11.417   3.280   3.757
  916SOL    HW217775  11.339   3.331   3.876
  916SOL     MW17776  11.405   3.283   3.844
  917SOL     OW17777  10.679   0.076   5.368
  917SOL    HW117778  10.610   0.034   5.316
  917SOL    HW217779  10.705   0.010   5.431
  917SOL     MW17780  10.674   0.064   5.369
  918SOL     OW17781  10.208   3.157   3.317
  918SOL    HW117782  10.242   3.192   3.400
  918SOL    HW217783  10.280   3.170   3.256
  918SOL     MW17784  10.221   3.163   3.320
  919SOL     OW17785  12.851   2.806   5.993
  919SOL    HW117786  12.807   2.783   6.076
  919SOL    HW217787  12.810   2.887   5.967
  919SOL     MW17788  12.841   2.813   6.000
  920SOL     OW17789  10.137   3.452   3.480
  920SOL    HW117790  10.191   3.402   3.543
  920SOL    HW217791  10.173   3.428   3.396
  920SOL     MW17792  10.148   3.443   3.478
  921SOL     OW17793  12.431   2.985   5.677
  921SOL    HW117794  12.465   2.968   5.766
  921SOL    HW217795  12.384   2.906   5.655
  921SOL     MW17796  12.429   2.974   5.685
  922SOL     OW17797  10.936   2.413   5.928
  922SOL    HW117798  10.869   2.442   5.991
  922SOL    HW217799  11.008   2.473   5.943
  922SOL     MW17800  10.936   2.424   5.938
  923SOL     OW17801  11.265   1.207   4.808
  923SOL    HW117802  11.169   1.212   4.806
  923SOL    HW217803  11.294   1.293   4.781
  923SOL     MW17804  11.257   1.218   4.805
  924SOL     OW17805  10.825   3.387   4.819
  924SOL    HW117806  10.881   3.449   4.867
  924SOL    HW217807  10.857   3.301   4.846
  924SOL     MW17808  10.836   3.384   4.828
  925SOL     OW17809  10.009   2.614   5.490
  925SOL    HW117810  10.019   2.682   5.422
  925SOL    HW217811  10.080   2.631   5.550
  925SOL     MW17812  10.019   2.625   5.489
  926SOL     OW17813  10.480   1.062   6.083
  926SOL    HW117814  10.510   1.150   6.057
  926SOL    HW217815  10.524   1.003   6.022
  926SOL     MW17816  10.489   1.066   6.073
  927SOL     OW17817  11.545   2.724   6.438
  927SOL    HW117818  11.543   2.802   6.495
  927SOL    HW217819  11.624   2.678   6.464
  927SOL     MW17820  11.554   2.728   6.448
  928SOL     OW17821  12.867   1.606   3.811
  928SOL    HW117822  12.828   1.690   3.784
  928SOL    HW217823  12.825   1.541   3.755
  928SOL     MW17824  12.857   1.608   3.801
  929SOL     OW17825  11.347   0.849   5.197
  929SOL    HW117826  11.408   0.775   5.213
  929SOL    HW217827  11.405   0.922   5.177
  929SOL     MW17828  11.362   0.848   5.197
  930SOL     OW17829  13.208   1.260   5.638
  930SOL    HW117830  13.211   1.236   5.545
  930SOL    HW217831  13.296   1.242   5.669
  930SOL     MW17832  13.219   1.255   5.631
  931SOL     OW17833  11.902   3.169   4.646
  931SOL    HW117834  11.925   3.221   4.568
  931SOL    HW217835  11.811   3.146   4.631
  931SOL     MW17836  11.894   3.173   4.634
  932SOL     OW17837  11.750   0.913   3.860
  932SOL    HW117838  11.808   0.903   3.784
  932SOL    HW217839  11.734   1.006   3.865
  932SOL     MW17840  11.755   0.923   3.851
  933SOL     OW17841  10.548   2.118   5.588
  933SOL    HW117842  10.566   2.151   5.676
  933SOL    HW217843  10.460   2.150   5.569
  933SOL     MW17844  10.540   2.126   5.596
  934SOL     OW17845  12.228   0.262   5.747
  934SOL    HW117846  12.162   0.213   5.798
  934SOL    HW217847  12.178   0.326   5.699
  934SOL     MW17848  12.214   0.264   5.747
  935SOL     OW17849  10.187   2.502   5.819
  935SOL    HW117850  10.276   2.470   5.799
  935SOL    HW217851  10.195   2.536   5.908
  935SOL     MW17852  10.199   2.502   5.827
  936SOL     OW17853  11.233   2.962   3.444
  936SOL    HW117854  11.149   2.964   3.396
  936SOL    HW217855  11.236   2.875   3.481
  936SOL     MW17856  11.223   2.952   3.442
  937SOL     OW17857  12.557   0.495   5.564
  937SOL    HW117858  12.515   0.508   5.478
  937SOL    HW217859  12.559   0.582   5.601
  937SOL     MW17860  12.552   0.507   5.558
  938SOL     OW17861  12.611   1.418   6.365
  938SOL    HW117862  12.704   1.420   6.388
  938SOL    HW217863  12.569   1.376   6.439
  938SOL     MW17864  12.617   1.414   6.377
  939SOL     OW17865  11.926   1.438   5.677
  939SOL    HW117866  12.021   1.436   5.691
  939SOL    HW217867  11.889   1.420   5.763
  939SOL     MW17868  11.933   1.436   5.689
  940SOL     OW17869  10.790   2.636   5.795
  940SOL    HW117870  10.863   2.613   5.852
  940SOL    HW217871  10.722   2.574   5.819
  940SOL     MW17872  10.791   2.626   5.805
  941SOL     OW17873  12.502   1.460   5.050
  941SOL    HW117874  12.485   1.403   5.126
  941SOL    HW217875  12.534   1.400   4.983
  941SOL     MW17876  12.504   1.446   5.051
  942SOL     OW17877  12.080   0.111   5.246
  942SOL    HW117878  12.093   0.182   5.182
  942SOL    HW217879  11.991   0.083   5.232
  942SOL     MW17880  12.071   0.116   5.236
  943SOL     OW17881  12.449   2.771   4.829
  943SOL    HW117882  12.510   2.824   4.778
  943SOL    HW217883  12.434   2.694   4.776
  943SOL     MW17884  12.455   2.769   4.817
  944SOL     OW17885  12.929   1.506   5.677
  944SOL    HW117886  12.938   1.454   5.758
  944SOL    HW217887  12.839   1.536   5.679
  944SOL     MW17888  12.920   1.503   5.687
  945SOL     OW17889  12.849   1.901   4.250
  945SOL    HW117890  12.754   1.915   4.242
  945SOL    HW217891  12.856   1.826   4.308
  945SOL     MW17892  12.838   1.893   4.256
  946SOL     OW17893  11.097   1.180   5.012
  946SOL    HW117894  11.032   1.221   5.070
  946SOL    HW217895  11.179   1.222   5.036
  946SOL     MW17896  11.099   1.190   5.022
  947SOL     OW17897  11.889   1.813   5.847
  947SOL    HW117898  11.904   1.763   5.928
  947SOL    HW217899  11.796   1.832   5.847
  947SOL     MW17900  11.880   1.810   5.857
  948SOL     OW17901  11.604   2.451   5.391
  948SOL    HW117902  11.690   2.434   5.432
  948SOL    HW217903  11.581   2.368   5.351
  948SOL     MW17904  11.612   2.439   5.391
  949SOL     OW17905  11.912   0.666   5.141
  949SOL    HW117906  11.840   0.603   5.145
  949SOL    HW217907  11.913   0.706   5.227
  949SOL     MW17908  11.903   0.663   5.152
  950SOL     OW17909  10.693   0.330   3.545
  950SOL    HW117910  10.689   0.402   3.609
  950SOL    HW217911  10.778   0.290   3.561
  950SOL     MW17912  10.703   0.334   3.555
  951SOL     OW17913  12.204   1.327   3.055
  951SOL    HW117914  12.132   1.343   3.117
  951SOL    HW217915  12.275   1.382   3.086
  951SOL     MW17916  12.204   1.336   3.066
  952SOL     OW17917  12.343   1.411   4.213
  952SOL    HW117918  12.331   1.354   4.289
  952SOL    HW217919  12.260   1.405   4.167
  952SOL     MW17920  12.331   1.403   4.217
  953SOL     OW17921  11.712   2.292   4.262
  953SOL    HW117922  11.632   2.319   4.216
  953SOL    HW217923  11.726   2.203   4.234
  953SOL     MW17924  11.704   2.285   4.253
  954SOL     OW17925  11.250   2.073   6.288
  954SOL    HW117926  11.315   2.088   6.220
  954SOL    HW217927  11.182   2.137   6.271
  954SOL     MW17928  11.250   2.082   6.278
  955SOL     OW17929  10.496   2.015   5.846
  955SOL    HW117930  10.493   2.085   5.912
  955SOL    HW217931  10.570   1.962   5.872
  955SOL     MW17932  10.505   2.018   5.857
  956SOL     OW17933  12.544   2.721   5.654
  956SOL    HW117934  12.590   2.703   5.737
  956SOL    HW217935  12.454   2.698   5.672
  956SOL     MW17936  12.539   2.716   5.667
  957SOL     OW17937  10.826   3.028   4.799
  957SOL    HW117938  10.843   3.106   4.745
  957SOL    HW217939  10.861   3.051   4.884
  957SOL     MW17940  10.833   3.040   4.802
  958SOL     OW17941  10.786   2.867   6.010
  958SOL    HW117942  10.758   2.947   5.965
  958SOL    HW217943  10.792   2.802   5.942
  958SOL     MW17944  10.783   2.869   5.997
  959SOL     OW17945  10.334   3.162   5.757
  959SOL    HW117946  10.341   3.178   5.662
  959SOL    HW217947  10.396   3.092   5.773
  959SOL     MW17948  10.342   3.156   5.747
  960SOL     OW17949  10.645   2.662   5.632
  960SOL    HW117950  10.616   2.601   5.564
  960SOL    HW217951  10.722   2.703   5.595
  960SOL     MW17952  10.651   2.660   5.619
  961SOL     OW17953  11.470   0.884   4.108
  961SOL    HW117954  11.455   0.913   4.017
  961SOL    HW217955  11.423   0.947   4.161
  961SOL     MW17956  11.462   0.895   4.103
  962SOL     OW17957  12.054   3.338   5.792
  962SOL    HW117958  11.989   3.322   5.723
  962SOL    HW217959  12.008   3.391   5.856
  962SOL     MW17960  12.041   3.342   5.791
  963SOL     OW17961  10.706   1.015   6.296
  963SOL    HW117962  10.766   0.948   6.259
  963SOL    HW217963  10.645   1.031   6.225
  963SOL     MW17964  10.706   1.008   6.283
  964SOL     OW17965  10.354   0.503   5.170
  964SOL    HW117966  10.428   0.542   5.123
  964SOL    HW217967  10.356   0.412   5.143
  964SOL     MW17968  10.364   0.497   5.161
  965SOL     OW17969  11.634   1.575   5.257
  965SOL    HW117970  11.715   1.628   5.258
  965SOL    HW217971  11.613   1.567   5.165
  965SOL     MW17972  11.642   1.581   5.246
  966SOL     OW17973  10.656   2.555   6.290
  966SOL    HW117974  10.633   2.624   6.353
  966SOL    HW217975  10.629   2.474   6.332
  966SOL     MW17976  10.650   2.553   6.302
  967SOL     OW17977  12.116   1.917   3.661
  967SOL    HW117978  12.051   1.868   3.712
  967SOL    HW217979  12.126   1.867   3.581
  967SOL     MW17980  12.110   1.905   3.658
  968SOL     OW17981  12.559   0.956   6.139
  968SOL    HW117982  12.554   0.955   6.235
  968SOL    HW217983  12.652   0.952   6.121
  968SOL     MW17984  12.570   0.956   6.148
  969SOL     OW17985  11.001   2.695   6.148
  969SOL    HW117986  10.950   2.773   6.123
  969SOL    HW217987  11.028   2.657   6.065
  969SOL     MW17988  10.998   2.700   6.135
  970SOL     OW17989  10.924   3.138   5.366
  970SOL    HW117990  10.979   3.086   5.306
  970SOL    HW217991  10.841   3.147   5.320
  970SOL     MW17992  10.921   3.132   5.353
  971SOL     OW17993  10.649   0.208   3.246
  971SOL    HW117994  10.566   0.173   3.279
  971SOL    HW217995  10.629   0.236   3.157
  971SOL     MW17996  10.636   0.207   3.239
  972SOL     OW17997  10.915   1.860   3.126
  972SOL    HW117998  10.858   1.870   3.050
  972SOL    HW217999  10.958   1.776   3.113
  972SOL     MW18000  10.913   1.852   3.115
  973SOL     OW18001  10.781   2.986   5.634
  973SOL    HW118002  10.785   2.983   5.730
  973SOL    HW218003  10.818   2.903   5.606
  973SOL     MW18004  10.786   2.976   5.643
  974SOL     OW18005  12.517   2.521   4.133
  974SOL    HW118006  12.511   2.527   4.229
  974SOL    HW218007  12.510   2.610   4.103
  974SOL     MW18008  12.516   2.532   4.141
  975SOL     OW18009  13.110   0.963   3.893
  975SOL    HW118010  13.060   0.977   3.812
  975SOL    HW218011  13.185   0.911   3.865
  975SOL     MW18012  13.113   0.959   3.879
  976SOL     OW18013  11.019   1.061   5.220
  976SOL    HW118014  11.114   1.048   5.206
  976SOL    HW218015  11.010   1.069   5.314
  976SOL     MW18016  11.030   1.061   5.230
  977SOL     OW18017  11.880   0.557   4.037
  977SOL    HW118018  11.858   0.650   4.050
  977SOL    HW218019  11.917   0.530   4.120
  977SOL     MW18020  11.881   0.565   4.048
  978SOL     OW18021  12.970   1.001   5.834
  978SOL    HW118022  13.040   1.052   5.876
  978SOL    HW218023  12.985   0.912   5.864
  978SOL     MW18024  12.981   0.997   5.843
  979SOL     OW18025  10.321   1.628   4.715
  979SOL    HW118026  10.362   1.697   4.662
  979SOL    HW218027  10.237   1.612   4.674
  979SOL     MW18028  10.316   1.634   4.704
  980SOL     OW18029  11.557   1.684   4.924
  980SOL    HW118030  11.583   1.761   4.975
  980SOL    HW218031  11.617   1.616   4.950
  980SOL     MW18032  11.567   1.685   4.933
  981SOL     OW18033  11.434   2.646   3.957
  981SOL    HW118034  11.369   2.575   3.951
  981SOL    HW218035  11.411   2.705   3.886
  981SOL     MW18036  11.423   2.645   3.948
  982SOL     OW18037  13.055   3.445   4.891
  982SOL    HW118038  13.088   3.406   4.809
  982SOL    HW218039  12.965   3.415   4.897
  982SOL     MW18040  13.049   3.437   4.882
  983SOL     OW18041  12.300   1.126   3.503
  983SOL    HW118042  12.334   1.047   3.461
  983SOL    HW218043  12.218   1.143   3.458
  983SOL     MW18044  12.294   1.118   3.493
  984SOL     OW18045  11.322   1.634   4.391
  984SOL    HW118046  11.281   1.583   4.462
  984SOL    HW218047  11.296   1.724   4.409
  984SOL     MW18048  11.314   1.638   4.402
  985SOL     OW18049  11.437   0.948   3.226
  985SOL    HW118050  11.495   0.991   3.289
  985SOL    HW218051  11.467   0.858   3.225
  985SOL     MW18052  11.448   0.942   3.234
  986SOL     OW18053  10.211   2.427   6.373
  986SOL    HW118054  10.175   2.482   6.303
  986SOL    HW218055  10.138   2.414   6.433
  986SOL     MW18056  10.198   2.432   6.372
  987SOL     OW18057  10.561   3.423   4.114
  987SOL    HW118058  10.545   3.437   4.020
  987SOL    HW218059  10.655   3.409   4.120
  987SOL     MW18060  10.570   3.423   4.103
  988SOL     OW18061  12.091   2.812   5.932
  988SOL    HW118062  12.087   2.872   6.007
  988SOL    HW218063  12.176   2.828   5.893
  988SOL     MW18064  12.101   2.821   5.937
  989SOL     OW18065  10.625   2.288   5.840
  989SOL    HW118066  10.671   2.212   5.877
  989SOL    HW218067  10.686   2.360   5.851
  989SOL     MW18068  10.638   2.287   5.846
  990SOL     OW18069  10.863   2.302   6.504
  990SOL    HW118070  10.767   2.292   6.510
  990SOL    HW218071  10.895   2.215   6.487
  990SOL     MW18072  10.855   2.291   6.503
  991SOL     OW18073  11.258   3.012   3.154
  991SOL    HW118074  11.285   2.951   3.223
  991SOL    HW218075  11.163   3.010   3.156
  991SOL     MW18076  11.250   3.004   3.163
  992SOL     OW18077  10.754   0.774   6.043
  992SOL    HW118078  10.692   0.701   6.035
  992SOL    HW218079  10.755   0.813   5.956
  992SOL     MW18080  10.747   0.770   6.031
  993SOL     OW18081  11.595   2.402   3.092
  993SOL    HW118082  11.511   2.424   3.050
  993SOL    HW218083  11.656   2.464   3.053
  993SOL     MW18084  11.592   2.412   3.082
  994SOL     OW18085  10.052   2.441   3.578
  994SOL    HW118086  10.120   2.430   3.510
  994SOL    HW218087  10.010   2.523   3.555
  994SOL     MW18088  10.056   2.449   3.567
  995SOL     OW18089  11.317   2.289   3.940
  995SOL    HW118090  11.321   2.365   3.999
  995SOL    HW218091  11.248   2.235   3.977
  995SOL     MW18092  11.309   2.292   3.952
  996SOL     OW18093  11.189   1.964   4.654
  996SOL    HW118094  11.221   1.887   4.606
  996SOL    HW218095  11.240   2.036   4.620
  996SOL     MW18096  11.199   1.963   4.644
  997SOL     OW18097  12.348   2.115   6.106
  997SOL    HW118098  12.351   2.020   6.097
  997SOL    HW218099  12.428   2.145   6.064
  997SOL     MW18100  12.358   2.107   6.100
  998SOL     OW18101  11.122   1.948   4.053
  998SOL    HW118102  11.170   1.997   4.120
  998SOL    HW218103  11.144   1.857   4.071
  998SOL     MW18104  11.130   1.943   4.063
  999SOL     OW18105  11.516   1.891   4.306
  999SOL    HW118106  11.578   1.837   4.255
  999SOL    HW218107  11.562   1.910   4.386
  999SOL     MW18108  11.529   1.887   4.309
 1000SOL     OW18109  10.422   1.885   3.090
 1000SOL    HW118110  10.474   1.814   3.050
 1000SOL    HW218111  10.474   1.914   3.163
 1000SOL     MW18112  10.434   1.880   3.093
 1001SOL     OW18113  12.699   3.098   5.204
 1001SOL    HW118114  12.752   3.056   5.136
 1001SOL    HW218115  12.723   3.190   5.199
 1001SOL     MW18116  12.708   3.104   5.195
 1002SOL     OW18117  13.074   2.841   3.049
 1002SOL    HW118118  13.025   2.895   3.113
 1002SOL    HW218119  13.158   2.827   3.090
 1002SOL     MW18120  13.078   2.846   3.062
 1003SOL     OW18121  10.720   1.709   3.464
 1003SOL    HW118122  10.681   1.788   3.503
 1003SOL    HW218123  10.786   1.682   3.526
 1003SOL     MW18124  10.723   1.715   3.476
 1004SOL     OW18125  11.064   2.966   6.142
 1004SOL    HW118126  11.147   3.000   6.108
 1004SOL    HW218127  11.005   3.040   6.139
 1004SOL     MW18128  11.067   2.979   6.137
 1005SOL     OW18129  11.177   1.520   4.146
 1005SOL    HW118130  11.090   1.558   4.160
 1005SOL    HW218131  11.236   1.580   4.189
 1005SOL     MW18132  11.173   1.531   4.153
 1006SOL     OW18133  12.981   2.082   5.170
 1006SOL    HW118134  12.979   2.040   5.084
 1006SOL    HW218135  13.071   2.112   5.179
 1006SOL     MW18136  12.992   2.081   5.160
 1007SOL     OW18137  11.165   2.966   4.097
 1007SOL    HW118138  11.147   2.875   4.072
 1007SOL    HW218139  11.248   2.962   4.142
 1007SOL     MW18140  11.173   2.954   4.100
 1008SOL     OW18141  12.481   1.881   4.156
 1008SOL    HW118142  12.567   1.837   4.149
 1008SOL    HW218143  12.429   1.842   4.087
 1008SOL     MW18144  12.486   1.871   4.147
 1009SOL     OW18145  10.274   1.114   4.177
 1009SOL    HW118146  10.343   1.148   4.120
 1009SOL    HW218147  10.195   1.118   4.124
 1009SOL     MW18148  10.273   1.119   4.164
 1010SOL     OW18149  12.956   2.970   3.333
 1010SOL    HW118150  12.882   2.979   3.272
 1010SOL    HW218151  12.979   2.878   3.328
 1010SOL     MW18152  12.950   2.960   3.325
 1011SOL     OW18153  13.335   0.224   3.744
 1011SOL    HW118154  13.295   0.312   3.751
 1011SOL    HW218155  13.329   0.188   3.832
 1011SOL     MW18156  13.329   0.231   3.755
 1012SOL     OW18157  13.096   0.164   6.465
 1012SOL    HW118158  13.072   0.171   6.372
 1012SOL    HW218159  13.049   0.234   6.508
 1012SOL     MW18160  13.087   0.173   6.459
 1013SOL     OW18161  11.590   2.722   4.966
 1013SOL    HW118162  11.599   2.818   4.970
 1013SOL    HW218163  11.597   2.703   4.873
 1013SOL     MW18164  11.592   2.732   4.955
 1014SOL     OW18165  10.192   3.009   6.164
 1014SOL    HW118166  10.212   2.917   6.182
 1014SOL    HW218167  10.257   3.057   6.215
 1014SOL     MW18168  10.202   3.004   6.173
 1015SOL     OW18169  12.445   2.457   3.092
 1015SOL    HW118170  12.368   2.486   3.043
 1015SOL    HW218171  12.417   2.375   3.131
 1015SOL     MW18172  12.432   2.451   3.091
 1016SOL     OW18173  12.963   3.187   5.664
 1016SOL    HW118174  12.935   3.121   5.729
 1016SOL    HW218175  12.923   3.267   5.693
 1016SOL     MW18176  12.955   3.188   5.675
 1017SOL     OW18177  12.282   1.372   4.503
 1017SOL    HW118178  12.272   1.419   4.587
 1017SOL    HW218179  12.371   1.339   4.505
 1017SOL     MW18180  12.292   1.374   4.514
 1018SOL     OW18181  12.246   0.854   5.161
 1018SOL    HW118182  12.253   0.871   5.067
 1018SOL    HW218183  12.286   0.930   5.202
 1018SOL     MW18184  12.252   0.865   5.155
 1019SOL     OW18185  11.370   1.983   3.654
 1019SOL    HW118186  11.453   1.937   3.638
 1019SOL    HW218187  11.304   1.920   3.631
 1019SOL     MW18188  11.373   1.970   3.650
 1020SOL     OW18189  10.775   0.409   6.125
 1020SOL    HW118190  10.753   0.498   6.095
 1020SOL    HW218191  10.833   0.376   6.058
 1020SOL     MW18192  10.779   0.416   6.113
 1021SOL     OW18193  12.467   2.077   4.588
 1021SOL    HW118194  12.407   2.119   4.525
 1021SOL    HW218195  12.461   1.985   4.567
 1021SOL     MW18196  12.459   2.071   4.577
 1022SOL     OW18197  10.927   1.881   6.007
 1022SOL    HW118198  11.011   1.916   6.039
 1022SOL    HW218199  10.936   1.787   6.014
 1022SOL     MW18200  10.938   1.874   6.012
 1023SOL     OW18201  12.167   1.439   5.497
 1023SOL    HW118202  12.168   1.524   5.541
 1023SOL    HW218203  12.255   1.406   5.506
 1023SOL     MW18204  12.177   1.445   5.503
 1024SOL     OW18205  10.103   2.644   3.765
 1024SOL    HW118206  10.010   2.625   3.750
 1024SOL    HW218207  10.109   2.662   3.858
 1024SOL     MW18208  10.093   2.644   3.774
 1025SOL     OW18209  11.744   1.974   3.118
 1025SOL    HW118210  11.655   1.946   3.095
 1025SOL    HW218211  11.767   2.036   3.050
 1025SOL     MW18212  11.736   1.978   3.107
 1026SOL     OW18213  10.211   1.450   6.209
 1026SOL    HW118214  10.142   1.387   6.185
 1026SOL    HW218215  10.292   1.403   6.193
 1026SOL     MW18216  10.212   1.436   6.204
 1027SOL     OW18217  11.281   3.062   5.244
 1027SOL    HW118218  11.368   3.103   5.258
 1027SOL    HW218219  11.237   3.072   5.328
 1027SOL     MW18220  11.287   3.068   5.256
 1028SOL     OW18221  12.347   2.615   5.975
 1028SOL    HW118222  12.409   2.688   5.974
 1028SOL    HW218223  12.307   2.619   6.062
 1028SOL     MW18224  12.350   2.624   5.985
 1029SOL     OW18225  10.813   1.820   5.784
 1029SOL    HW118226  10.823   1.733   5.746
 1029SOL    HW218227  10.735   1.813   5.839
 1029SOL     MW18228  10.805   1.809   5.786
 1030SOL     OW18229  10.356   3.277   4.160
 1030SOL    HW118230  10.361   3.320   4.074
 1030SOL    HW218231  10.324   3.190   4.140
 1030SOL     MW18232  10.352   3.272   4.147
 1031SOL     OW18233  12.752   1.116   6.383
 1031SOL    HW118234  12.728   1.193   6.331
 1031SOL    HW218235  12.732   1.141   6.472
 1031SOL     MW18236  12.747   1.128   6.387
 1032SOL     OW18237  12.114   2.316   5.692
 1032SOL    HW118238  12.061   2.237   5.712
 1032SOL    HW218239  12.050   2.385   5.682
 1032SOL     MW18240  12.100   2.314   5.694
 1033SOL     OW18241  10.748   3.120   6.277
 1033SOL    HW118242  10.675   3.116   6.340
 1033SOL    HW218243  10.788   3.204   6.293
 1033SOL     MW18244  10.744   3.129   6.286
 1034SOL     OW18245  10.387   0.195   5.358
 1034SOL    HW118246  10.476   0.209   5.390
 1034SOL    HW218247  10.337   0.174   5.435
 1034SOL     MW18248  10.392   0.194   5.371
 1035SOL     OW18249  10.606   2.252   4.567
 1035SOL    HW118250  10.631   2.224   4.655
 1035SOL    HW218251  10.538   2.191   4.541
 1035SOL     MW18252  10.601   2.241   4.575
 1036SOL     OW18253  12.318   0.778   3.971
 1036SOL    HW118254  12.396   0.765   3.917
 1036SOL    HW218255  12.282   0.861   3.941
 1036SOL     MW18256  12.323   0.786   3.961
 1037SOL     OW18257  12.099   3.163   4.742
 1037SOL    HW118258  12.107   3.124   4.830
 1037SOL    HW218259  12.179   3.214   4.733
 1037SOL     MW18260  12.109   3.164   4.752
 1038SOL     OW18261  11.927   3.384   6.167
 1038SOL    HW118262  11.855   3.392   6.104
 1038SOL    HW218263  11.920   3.295   6.200
 1038SOL     MW18264  11.917   3.374   6.163
 1039SOL     OW18265  11.858   1.711   5.112
 1039SOL    HW118266  11.901   1.627   5.130
 1039SOL    HW218267  11.830   1.704   5.022
 1039SOL     MW18268  11.860   1.700   5.104
 1040SOL     OW18269  12.535   1.858   3.250
 1040SOL    HW118270  12.535   1.784   3.312
 1040SOL    HW218271  12.457   1.907   3.271
 1040SOL     MW18272  12.526   1.855   3.260
 1041SOL     OW18273  10.890   0.146   5.903
 1041SOL    HW118274  10.839   0.076   5.860
 1041SOL    HW218275  10.836   0.171   5.977
 1041SOL     MW18276  10.877   0.140   5.906
 1042SOL     OW18277  10.013   0.758   3.442
 1042SOL    HW118278  10.009   0.665   3.467
 1042SOL    HW218279  10.060   0.757   3.359
 1042SOL     MW18280  10.018   0.746   3.435
 1043SOL     OW18281  12.002   2.723   5.057
 1043SOL    HW118282  12.056   2.757   4.985
 1043SOL    HW218283  11.913   2.727   5.025
 1043SOL     MW18284  11.998   2.727   5.045
 1044SOL     OW18285  13.017   0.143   4.231
 1044SOL    HW118286  13.091   0.173   4.178
 1044SOL    HW218287  13.021   0.048   4.225
 1044SOL     MW18288  13.026   0.135   4.224
 1045SOL     OW18289  10.038   2.669   4.266
 1045SOL    HW118290  10.070   2.659   4.175
 1045SOL    HW218291  10.057   2.760   4.287
 1045SOL     MW18292  10.044   2.679   4.257
 1046SOL     OW18293  12.403   3.192   5.244
 1046SOL    HW118294  12.374   3.157   5.159
 1046SOL    HW218295  12.484   3.146   5.261
 1046SOL     MW18296  12.409   3.182   5.235
 1047SOL     OW18297  10.506   2.360   3.830
 1047SOL    HW118298  10.575   2.411   3.874
 1047SOL    HW218299  10.539   2.271   3.831
 1047SOL     MW18300  10.518   2.355   3.836
 1048SOL     OW18301  10.175   2.464   4.666
 1048SOL    HW118302  10.173   2.380   4.617
 1048SOL    HW218303  10.099   2.510   4.633
 1048SOL     MW18304  10.165   2.459   4.656
 1049SOL     OW18305  11.468   2.803   5.183
 1049SOL    HW118306  11.418   2.854   5.247
 1049SOL    HW218307  11.559   2.816   5.207
 1049SOL     MW18308  11.473   2.810   5.193
 1050SOL     OW18309  12.634   1.613   6.095
 1050SOL    HW118310  12.579   1.538   6.072
 1050SOL    HW218311  12.673   1.639   6.012
 1050SOL     MW18312  12.632   1.607   6.082
 1051SOL     OW18313  11.887   1.546   4.379
 1051SOL    HW118314  11.975   1.586   4.377
 1051SOL    HW218315  11.861   1.553   4.470
 1051SOL     MW18316  11.895   1.551   4.390
 1052SOL     OW18317  10.712   1.956   4.544
 1052SOL    HW118318  10.790   1.926   4.496
 1052SOL    HW218319  10.702   2.047   4.519
 1052SOL     MW18320  10.720   1.963   4.535
 1053SOL     OW18321  11.680   0.454   5.685
 1053SOL    HW118322  11.681   0.543   5.721
 1053SOL    HW218323  11.697   0.398   5.760
 1053SOL     MW18324  11.682   0.458   5.698
 1054SOL     OW18325  11.734   1.390   3.938
 1054SOL    HW118326  11.733   1.293   3.933
 1054SOL    HW218327  11.801   1.416   3.876
 1054SOL     MW18328  11.742   1.381   3.930
 1055SOL     OW18329  11.950   1.252   3.201
 1055SOL    HW118330  11.973   1.161   3.179
 1055SOL    HW218331  11.996   1.269   3.282
 1055SOL     MW18332  11.958   1.243   3.207
 1056SOL     OW18333  11.741   0.273   5.066
 1056SOL    HW118334  11.695   0.194   5.035
 1056SOL    HW218335  11.799   0.241   5.134
 1056SOL     MW18336  11.742   0.260   5.070
 1057SOL     OW18337  12.854   2.397   3.191
 1057SOL    HW118338  12.833   2.389   3.285
 1057SOL    HW218339  12.947   2.380   3.187
 1057SOL     MW18340  12.862   2.394   3.202
 1058SOL     OW18341  11.632   0.961   3.069
 1058SOL    HW118342  11.555   1.018   3.054
 1058SOL    HW218343  11.706   1.015   3.045
 1058SOL     MW18344  11.631   0.974   3.065
 1059SOL     OW18345  11.850   0.343   5.919
 1059SOL    HW118346  11.774   0.322   5.973
 1059SOL    HW218347  11.908   0.389   5.978
 1059SOL     MW18348  11.848   0.346   5.932
 1060SOL     OW18349  11.054   2.100   5.756
 1060SOL    HW118350  11.107   2.086   5.835
 1060SOL    HW218351  11.105   2.061   5.686
 1060SOL     MW18352  11.067   2.094   5.757
 1061SOL     OW18353  11.769   0.158   3.758
 1061SOL    HW118354  11.763   0.177   3.852
 1061SOL    HW218355  11.720   0.077   3.748
 1061SOL     MW18356  11.762   0.151   3.768
 1062SOL     OW18357  12.253   2.853   4.464
 1062SOL    HW118358  12.184   2.859   4.398
 1062SOL    HW218359  12.248   2.935   4.512
 1062SOL     MW18360  12.244   2.864   4.462
 1063SOL     OW18361  12.083   3.002   5.341
 1063SOL    HW118362  12.170   2.971   5.316
 1063SOL    HW218363  12.074   3.085   5.297
 1063SOL     MW18364  12.092   3.008   5.333
 1064SOL     OW18365  10.076   3.249   3.125
 1064SOL    HW118366  10.009   3.279   3.187
 1064SOL    HW218367  10.150   3.306   3.142
 1064SOL     MW18368  10.077   3.260   3.135
 1065SOL     OW18369  11.165   2.195   5.289
 1065SOL    HW118370  11.214   2.264   5.244
 1065SOL    HW218371  11.074   2.215   5.270
 1065SOL     MW18372  11.160   2.206   5.281
 1066SOL     OW18373  10.414   2.552   3.923
 1066SOL    HW118374  10.432   2.647   3.928
 1066SOL    HW218375  10.326   2.543   3.959
 1066SOL     MW18376  10.406   2.563   3.928
 1067SOL     OW18377  12.477   1.035   5.164
 1067SOL    HW118378  12.499   1.052   5.256
 1067SOL    HW218379  12.543   1.082   5.115
 1067SOL     MW18380  12.487   1.043   5.169
 1068SOL     OW18381  12.760   3.366   4.506
 1068SOL    HW118382  12.777   3.367   4.411
 1068SOL    HW218383  12.817   3.433   4.541
 1068SOL     MW18384  12.769   3.374   4.498
 1069SOL     OW18385  11.002   3.078   3.515
 1069SOL    HW118386  11.038   3.069   3.604
 1069SOL    HW218387  10.931   3.015   3.512
 1069SOL     MW18388  10.998   3.070   3.526
 1070SOL     OW18389  10.072   0.370   5.041
 1070SOL    HW118390  10.009   0.438   5.017
 1070SOL    HW218391  10.150   0.418   5.065
 1070SOL     MW18392  10.074   0.384   5.041
 1071SOL     OW18393  10.089   1.450   5.978
 1071SOL    HW118394  10.102   1.414   5.890
 1071SOL    HW218395  10.169   1.497   5.997
 1071SOL     MW18396  10.100   1.452   5.970
 1072SOL     OW18397  11.842   1.975   3.494
 1072SOL    HW118398  11.934   1.945   3.490
 1072SOL    HW218399  11.801   1.916   3.556
 1072SOL     MW18400  11.849   1.964   3.501
 1073SOL     OW18401  13.304   1.332   3.419
 1073SOL    HW118402  13.314   1.405   3.481
 1073SOL    HW218403  13.340   1.257   3.466
 1073SOL     MW18404  13.310   1.332   3.432
 1074SOL     OW18405  11.594   2.215   3.668
 1074SOL    HW118406  11.506   2.255   3.673
 1074SOL    HW218407  11.653   2.288   3.681
 1074SOL     MW18408  11.590   2.228   3.670
 1075SOL     OW18409  11.992   0.370   5.234
 1075SOL    HW118410  11.939   0.330   5.303
 1075SOL    HW218411  11.979   0.464   5.245
 1075SOL     MW18412  11.984   0.377   5.244
 1076SOL     OW18413  11.627   0.113   3.506
 1076SOL    HW118414  11.572   0.185   3.474
 1076SOL    HW218415  11.579   0.077   3.579
 1076SOL     MW18416  11.615   0.117   3.511
 1077SOL     OW18417  10.687   2.770   4.446
 1077SOL    HW118418  10.630   2.848   4.445
 1077SOL    HW218419  10.766   2.799   4.491
 1077SOL     MW18420  10.690   2.783   4.451
 1078SOL     OW18421  12.661   0.883   5.155
 1078SOL    HW118422  12.723   0.952   5.130
 1078SOL    HW218423  12.623   0.854   5.073
 1078SOL     MW18424  12.664   0.888   5.142
 1079SOL     OW18425  12.677   3.000   5.654
 1079SOL    HW118426  12.736   3.026   5.726
 1079SOL    HW218427  12.658   2.909   5.672
 1079SOL     MW18428  12.682   2.992   5.665
 1080SOL     OW18429  11.117   3.316   6.006
 1080SOL    HW118430  11.044   3.260   6.036
 1080SOL    HW218431  11.105   3.397   6.054
 1080SOL     MW18432  11.106   3.319   6.016
 1081SOL     OW18433  12.312   0.078   4.782
 1081SOL    HW118434  12.260   0.081   4.700
 1081SOL    HW218435  12.382   0.017   4.762
 1081SOL     MW18436  12.314   0.071   4.770
 1082SOL     OW18437  12.731   0.223   3.284
 1082SOL    HW118438  12.727   0.133   3.317
 1082SOL    HW218439  12.809   0.226   3.230
 1082SOL     MW18440  12.739   0.212   3.282
 1083SOL     OW18441  10.723   3.085   4.561
 1083SOL    HW118442  10.676   3.060   4.482
 1083SOL    HW218443  10.679   3.163   4.591
 1083SOL     MW18444  10.712   3.091   4.555
 1084SOL     OW18445  11.400   0.982   4.880
 1084SOL    HW118446  11.452   0.917   4.832
 1084SOL    HW218447  11.430   1.066   4.846
 1084SOL     MW18448  11.410   0.984   4.870
 1085SOL     OW18449  12.340   0.464   5.617
 1085SOL    HW118450  12.387   0.390   5.658
 1085SOL    HW218451  12.300   0.510   5.689
 1085SOL     MW18452  12.341   0.460   5.630
 1086SOL     OW18453  12.734   0.626   4.983
 1086SOL    HW118454  12.670   0.559   4.960
 1086SOL    HW218455  12.818   0.581   4.980
 1086SOL     MW18456  12.736   0.613   4.980
 1087SOL     OW18457  10.137   1.576   4.990
 1087SOL    HW118458  10.217   1.610   4.948
 1087SOL    HW218459  10.069   1.635   4.963
 1087SOL     MW18460  10.139   1.587   4.982
 1088SOL     OW18461  10.596   1.298   4.237
 1088SOL    HW118462  10.534   1.260   4.301
 1088SOL    HW218463  10.594   1.391   4.254
 1088SOL     MW18464  10.588   1.304   4.247
 1089SOL     OW18465  10.948   2.733   5.658
 1089SOL    HW118466  10.982   2.761   5.743
 1089SOL    HW218467  10.968   2.640   5.654
 1089SOL     MW18468  10.955   2.725   5.668
 1090SOL     OW18469  11.950   1.443   6.024
 1090SOL    HW118470  11.903   1.509   5.972
 1090SOL    HW218471  11.889   1.370   6.029
 1090SOL     MW18472  11.937   1.442   6.018
 1091SOL     OW18473  13.341   1.441   4.113
 1091SOL    HW118474  13.300   1.528   4.101
 1091SOL    HW218475  13.297   1.406   4.190
 1091SOL     MW18476  13.331   1.448   4.121
 1092SOL     OW18477  12.192   2.844   4.802
 1092SOL    HW118478  12.241   2.897   4.738
 1092SOL    HW218479  12.133   2.906   4.843
 1092SOL     MW18480  12.191   2.858   4.799
 1093SOL     OW18481  12.976   0.950   6.179
 1093SOL    HW118482  12.971   0.971   6.085
 1093SOL    HW218483  12.888   0.965   6.211
 1093SOL     MW18484  12.965   0.955   6.171
 1094SOL     OW18485  10.517   2.999   5.615
 1094SOL    HW118486  10.572   2.920   5.612
 1094SOL    HW218487  10.579   3.071   5.615
 1094SOL     MW18488  10.531   2.998   5.615
 1095SOL     OW18489  10.501   3.427   5.458
 1095SOL    HW118490  10.510   3.460   5.368
 1095SOL    HW218491  10.590   3.420   5.489
 1095SOL     MW18492  10.513   3.430   5.451
 1096SOL     OW18493  13.261   1.338   5.313
 1096SOL    HW118494  13.244   1.408   5.250
 1096SOL    HW218495  13.341   1.297   5.281
 1096SOL     MW18496  13.269   1.342   5.301
 1097SOL     OW18497  11.462   3.167   4.094
 1097SOL    HW118498  11.377   3.208   4.072
 1097SOL    HW218499  11.493   3.134   4.010
 1097SOL     MW18500  11.455   3.168   4.081
 1098SOL     OW18501  12.061   1.941   4.093
 1098SOL    HW118502  12.018   1.854   4.091
 1098SOL    HW218503  12.080   1.960   4.002
 1098SOL     MW18504  12.058   1.932   4.082
 1099SOL     OW18505  12.486   3.301   4.001
 1099SOL    HW118506  12.491   3.336   3.912
 1099SOL    HW218507  12.395   3.281   4.014
 1099SOL     MW18508  12.476   3.303   3.992
 1100SOL     OW18509  10.664   1.620   5.525
 1100SOL    HW118510  10.680   1.623   5.620
 1100SOL    HW218511  10.571   1.603   5.517
 1100SOL     MW18512  10.655   1.619   5.536
 1101SOL     OW18513  11.793   0.502   4.647
 1101SOL    HW118514  11.774   0.515   4.554
 1101SOL    HW218515  11.842   0.579   4.672
 1101SOL     MW18516  11.797   0.513   4.639
 1102SOL     OW18517  11.216   1.500   3.930
 1102SOL    HW118518  11.257   1.585   3.947
 1102SOL    HW218519  11.163   1.515   3.853
 1102SOL     MW18520  11.215   1.512   3.923
 1103SOL     OW18521  11.371   1.443   3.114
 1103SOL    HW118522  11.421   1.397   3.046
 1103SOL    HW218523  11.336   1.519   3.070
 1103SOL     MW18524  11.373   1.446   3.101
 1104SOL     OW18525  13.105   0.839   3.589
 1104SOL    HW118526  13.024   0.841   3.640
 1104SOL    HW218527  13.161   0.904   3.630
 1104SOL     MW18528  13.102   0.847   3.600
 1105SOL     OW18529  11.582   0.328   5.220
 1105SOL    HW118530  11.493   0.361   5.208
 1105SOL    HW218531  11.637   0.405   5.212
 1105SOL     MW18532  11.578   0.341   5.218
 1106SOL     OW18533  13.336   1.004   4.067
 1106SOL    HW118534  13.263   1.051   4.025
 1106SOL    HW218535  13.340   0.921   4.021
 1106SOL     MW18536  13.327   1.000   4.056
 1107SOL     OW18537  13.224   2.945   6.123
 1107SOL    HW118538  13.213   2.904   6.037
 1107SOL    HW218539  13.315   2.970   6.126
 1107SOL     MW18540  13.233   2.943   6.113
 1108SOL     OW18541  11.128   2.948   4.458
 1108SOL    HW118542  11.193   2.923   4.525
 1108SOL    HW218543  11.046   2.915   4.491
 1108SOL     MW18544  11.126   2.941   4.470
 1109SOL     OW18545  11.120   1.050   5.891
 1109SOL    HW118546  11.148   1.026   5.802
 1109SOL    HW218547  11.130   1.144   5.894
 1109SOL     MW18548  11.125   1.058   5.881
 1110SOL     OW18549  10.617   3.324   5.685
 1110SOL    HW118550  10.534   3.285   5.655
 1110SOL    HW218551  10.682   3.259   5.664
 1110SOL     MW18552  10.615   3.312   5.679
 1111SOL     OW18553  11.645   3.430   4.421
 1111SOL    HW118554  11.736   3.460   4.407
 1111SOL    HW218555  11.599   3.460   4.344
 1111SOL     MW18556  11.651   3.437   4.410
 1112SOL     OW18557  11.005   3.341   4.306
 1112SOL    HW118558  10.991   3.374   4.395
 1112SOL    HW218559  10.934   3.378   4.255
 1112SOL     MW18560  10.995   3.350   4.311
 1113SOL     OW18561  12.200   0.703   3.705
 1113SOL    HW118562  12.281   0.709   3.652
 1113SOL    HW218563  12.131   0.719   3.642
 1113SOL     MW18564  12.202   0.706   3.691
 1114SOL     OW18565  11.748   3.354   5.482
 1114SOL    HW118566  11.736   3.432   5.537
 1114SOL    HW218567  11.712   3.379   5.398
 1114SOL     MW18568  11.742   3.366   5.479
 1115SOL     OW18569  12.712   2.016   5.054
 1115SOL    HW118570  12.672   1.931   5.076
 1115SOL    HW218571  12.783   1.993   4.995
 1115SOL     MW18572  12.716   2.003   5.050
 1116SOL     OW18573  10.382   3.283   3.545
 1116SOL    HW118574  10.416   3.306   3.631
 1116SOL    HW218575  10.458   3.253   3.497
 1116SOL     MW18576  10.395   3.282   3.549
 1117SOL     OW18577  10.966   0.540   5.830
 1117SOL    HW118578  11.007   0.530   5.917
 1117SOL    HW218579  10.950   0.633   5.823
 1117SOL     MW18580  10.969   0.550   5.840
 1118SOL     OW18581  13.050   2.595   3.896
 1118SOL    HW118582  13.104   2.580   3.974
 1118SOL    HW218583  12.962   2.573   3.924
 1118SOL     MW18584  13.046   2.591   3.909
 1119SOL     OW18585  11.884   1.109   4.434
 1119SOL    HW118586  11.871   1.155   4.350
 1119SOL    HW218587  11.798   1.111   4.475
 1119SOL     MW18588  11.872   1.115   4.429
 1120SOL     OW18589  11.663   2.833   3.893
 1120SOL    HW118590  11.604   2.842   3.818
 1120SOL    HW218591  11.642   2.747   3.929
 1120SOL     MW18592  11.653   2.824   3.888
 1121SOL     OW18593  10.970   0.784   5.119
 1121SOL    HW118594  10.879   0.803   5.146
 1121SOL    HW218595  11.023   0.834   5.179
 1121SOL     MW18596  10.965   0.792   5.129
 1122SOL     OW18597  10.218   3.414   5.630
 1122SOL    HW118598  10.185   3.460   5.708
 1122SOL    HW218599  10.177   3.459   5.557
 1122SOL     MW18600  10.209   3.425   5.631
 1123SOL     OW18601  10.636   0.798   5.617
 1123SOL    HW118602  10.631   0.892   5.635
 1123SOL    HW218603  10.556   0.780   5.568
 1123SOL     MW18604  10.626   0.807   5.614
 1124SOL     OW18605  11.557   1.213   4.178
 1124SOL    HW118606  11.593   1.275   4.113
 1124SOL    HW218607  11.464   1.211   4.159
 1124SOL     MW18608  11.551   1.220   4.168
 1125SOL     OW18609  11.546   0.222   5.880
 1125SOL    HW118610  11.502   0.158   5.937
 1125SOL    HW218611  11.503   0.211   5.796
 1125SOL     MW18612  11.536   0.213   5.877
 1126SOL     OW18613  11.176   3.085   3.901
 1126SOL    HW118614  11.266   3.067   3.930
 1126SOL    HW218615  11.185   3.158   3.840
 1126SOL     MW18616  11.188   3.092   3.898
 1127SOL     OW18617  10.392   2.660   5.636
 1127SOL    HW118618  10.442   2.700   5.708
 1127SOL    HW218619  10.412   2.568   5.642
 1127SOL     MW18620  10.400   2.654   5.646
 1128SOL     OW18621  11.849   1.045   5.012
 1128SOL    HW118622  11.915   1.077   4.951
 1128SOL    HW218623  11.768   1.049   4.963
 1128SOL     MW18624  11.847   1.049   4.999
 1129SOL     OW18625  10.237   1.887   6.465
 1129SOL    HW118626  10.258   1.922   6.378
 1129SOL    HW218627  10.196   1.959   6.510
 1129SOL     MW18628  10.235   1.900   6.459
 1130SOL     OW18629  13.022   0.397   3.697
 1130SOL    HW118630  13.077   0.337   3.747
 1130SOL    HW218631  12.934   0.367   3.711
 1130SOL     MW18632  13.018   0.386   3.705
 1131SOL     OW18633  10.853   3.254   3.361
 1131SOL    HW118634  10.877   3.161   3.354
 1131SOL    HW218635  10.865   3.275   3.453
 1131SOL     MW18636  10.857   3.246   3.371
 1132SOL     OW18637  11.282   3.128   5.897
 1132SOL    HW118638  11.235   3.142   5.815
 1132SOL    HW218639  11.367   3.096   5.870
 1132SOL     MW18640  11.286   3.126   5.884
 1133SOL     OW18641  10.183   2.740   5.814
 1133SOL    HW118642  10.271   2.743   5.852
 1133SOL    HW218643  10.198   2.718   5.722
 1133SOL     MW18644  10.195   2.737   5.808
 1134SOL     OW18645  11.577   1.366   4.731
 1134SOL    HW118646  11.582   1.419   4.811
 1134SOL    HW218647  11.535   1.422   4.667
 1134SOL     MW18648  11.573   1.379   4.733
 1135SOL     OW18649  11.469   1.348   3.947
 1135SOL    HW118650  11.440   1.427   3.899
 1135SOL    HW218651  11.445   1.276   3.890
 1135SOL     MW18652  11.463   1.349   3.934
 1136SOL     OW18653  12.415   2.606   4.549
 1136SOL    HW118654  12.500   2.569   4.572
 1136SOL    HW218655  12.428   2.700   4.553
 1136SOL     MW18656  12.427   2.613   4.552
 1137SOL     OW18657  12.361   0.356   4.238
 1137SOL    HW118658  12.352   0.295   4.312
 1137SOL    HW218659  12.277   0.350   4.193
 1137SOL     MW18660  12.350   0.348   4.242
 1138SOL     OW18661  11.342   1.864   3.840
 1138SOL    HW118662  11.338   1.770   3.860
 1138SOL    HW218663  11.264   1.900   3.880
 1138SOL     MW18664  11.332   1.857   3.847
 1139SOL     OW18665  11.567   2.846   5.746
 1139SOL    HW118666  11.614   2.865   5.664
 1139SOL    HW218667  11.621   2.781   5.789
 1139SOL     MW18668  11.579   2.840   5.741
 1140SOL     OW18669  12.951   2.721   4.522
 1140SOL    HW118670  12.913   2.799   4.481
 1140SOL    HW218671  12.898   2.650   4.489
 1140SOL     MW18672  12.940   2.722   4.513
 1141SOL     OW18673  12.748   1.518   4.840
 1141SOL    HW118674  12.696   1.493   4.763
 1141SOL    HW218675  12.691   1.578   4.888
 1141SOL     MW18676  12.735   1.522   4.837
 1142SOL     OW18677  13.328   2.122   6.015
 1142SOL    HW118678  13.262   2.119   6.085
 1142SOL    HW218679  13.314   2.206   5.973
 1142SOL     MW18680  13.318   2.132   6.018
 1143SOL     OW18681  10.410   1.462   3.854
 1143SOL    HW118682  10.502   1.486   3.868
 1143SOL    HW218683  10.398   1.471   3.760
 1143SOL     MW18684  10.420   1.466   3.844
 1144SOL     OW18685  12.089   3.205   4.284
 1144SOL    HW118686  12.036   3.178   4.208
 1144SOL    HW218687  12.168   3.153   4.276
 1144SOL     MW18688  12.092   3.196   4.274
 1145SOL     OW18689  12.458   1.741   6.127
 1145SOL    HW118690  12.479   1.790   6.208
 1145SOL    HW218691  12.443   1.809   6.062
 1145SOL     MW18692  12.459   1.755   6.129
 1146SOL     OW18693  10.955   1.974   5.491
 1146SOL    HW118694  10.949   2.007   5.401
 1146SOL    HW218695  10.866   1.946   5.511
 1146SOL     MW18696  10.944   1.974   5.482
 1147SOL     OW18697  10.485   1.525   4.117
 1147SOL    HW118698  10.409   1.491   4.167
 1147SOL    HW218699  10.448   1.591   4.060
 1147SOL     MW18700  10.471   1.528   4.117
 1148SOL     OW18701  12.502   2.333   4.331
 1148SOL    HW118702  12.445   2.380   4.392
 1148SOL    HW218703  12.525   2.253   4.377
 1148SOL     MW18704  12.498   2.329   4.344
 1149SOL     OW18705  12.385   2.416   6.160
 1149SOL    HW118706  12.459   2.436   6.219
 1149SOL    HW218707  12.309   2.451   6.204
 1149SOL     MW18708  12.385   2.422   6.172
 1150SOL     OW18709  11.981   2.635   4.093
 1150SOL    HW118710  11.967   2.697   4.165
 1150SOL    HW218711  12.076   2.628   4.088
 1150SOL     MW18712  11.991   2.642   4.101
 1151SOL     OW18713  11.774   3.371   6.345
 1151SOL    HW118714  11.750   3.420   6.424
 1151SOL    HW218715  11.697   3.379   6.289
 1151SOL     MW18716  11.762   3.378   6.348
 1152SOL     OW18717  12.193   1.674   3.126
 1152SOL    HW118718  12.167   1.588   3.091
 1152SOL    HW218719  12.287   1.669   3.133
 1152SOL     MW18720  12.201   1.663   3.122
 1153SOL     OW18721  10.145   1.946   4.530
 1153SOL    HW118722  10.066   1.965   4.478
 1153SOL    HW218723  10.205   2.016   4.509
 1153SOL     MW18724  10.142   1.957   4.521
 1154SOL     OW18725  12.745   0.005   5.791
 1154SOL    HW118726  12.740   0.065   5.716
 1154SOL    HW218727  12.657   0.004   5.827
 1154SOL     MW18728  12.733   0.012   5.786
 1155SOL     OW18729  11.739   1.955   4.007
 1155SOL    HW118730  11.718   1.984   4.096
 1155SOL    HW218731  11.816   1.901   4.018
 1155SOL     MW18732  11.745   1.952   4.019
 1156SOL     OW18733  10.845   1.934   3.706
 1156SOL    HW118734  10.928   1.982   3.698
 1156SOL    HW218735  10.835   1.890   3.622
 1156SOL     MW18736  10.854   1.934   3.695
 1157SOL     OW18737  12.343   3.428   3.608
 1157SOL    HW118738  12.296   3.460   3.530
 1157SOL    HW218739  12.385   3.348   3.578
 1157SOL     MW18740  12.343   3.422   3.595
 1158SOL     OW18741  11.883   2.201   4.690
 1158SOL    HW118742  11.854   2.131   4.749
 1158SOL    HW218743  11.828   2.275   4.713
 1158SOL     MW18744  11.873   2.202   4.700
 1159SOL     OW18745  10.929   3.210   5.096
 1159SOL    HW118746  10.983   3.193   5.018
 1159SOL    HW218747  10.854   3.258   5.062
 1159SOL     MW18748  10.926   3.214   5.083
 1160SOL     OW18749  11.050   0.714   6.038
 1160SOL    HW118750  10.969   0.744   6.081
 1160SOL    HW218751  11.119   0.744   6.095
 1160SOL     MW18752  11.048   0.721   6.050
 1161SOL     OW18753  10.814   2.318   4.543
 1161SOL    HW118754  10.816   2.364   4.459
 1161SOL    HW218755  10.835   2.385   4.607
 1161SOL     MW18756  10.817   2.331   4.540
 1162SOL     OW18757  11.913   0.135   4.253
 1162SOL    HW118758  11.882   0.204   4.313
 1162SOL    HW218759  11.955   0.072   4.309
 1162SOL     MW18760  11.914   0.136   4.267
 1163SOL     OW18761  10.608   0.467   3.135
 1163SOL    HW118762  10.618   0.426   3.048
 1163SOL    HW218763  10.518   0.449   3.158
 1163SOL     MW18764  10.599   0.460   3.127
 1164SOL     OW18765  10.756   0.272   5.003
 1164SOL    HW118766  10.777   0.186   5.039
 1164SOL    HW218767  10.700   0.254   4.929
 1164SOL     MW18768  10.752   0.260   4.998
 1165SOL     OW18769  11.830   0.070   6.419
 1165SOL    HW118770  11.818   0.146   6.477
 1165SOL    HW218771  11.781   0.093   6.341
 1165SOL     MW18772  11.822   0.082   6.417
 1166SOL     OW18773  10.106   0.506   5.418
 1166SOL    HW118774  10.154   0.427   5.444
 1166SOL    HW218775  10.032   0.473   5.369
 1166SOL     MW18776  10.103   0.492   5.416
 1167SOL     OW18777  12.806   0.578   5.818
 1167SOL    HW118778  12.859   0.520   5.873
 1167SOL    HW218779  12.729   0.526   5.796
 1167SOL     MW18780  12.803   0.565   5.822
 1168SOL     OW18781  13.023   1.187   3.071
 1168SOL    HW118782  13.046   1.279   3.054
 1168SOL    HW218783  13.101   1.150   3.110
 1168SOL     MW18784  13.035   1.194   3.074
 1169SOL     OW18785  12.720   3.435   5.999
 1169SOL    HW118786  12.804   3.455   6.041
 1169SOL    HW218787  12.707   3.342   6.015
 1169SOL     MW18788  12.729   3.426   6.006
 1170SOL     OW18789  10.733   1.247   5.882
 1170SOL    HW118790  10.810   1.253   5.940
 1170SOL    HW218791  10.705   1.157   5.890
 1170SOL     MW18792  10.739   1.237   5.890
 1171SOL     OW18793  10.664   1.087   4.921
 1171SOL    HW118794  10.608   1.164   4.907
 1171SOL    HW218795  10.752   1.118   4.903
 1171SOL     MW18796  10.668   1.100   4.917
 1172SOL     OW18797  10.430   2.961   4.619
 1172SOL    HW118798  10.401   2.889   4.562
 1172SOL    HW218799  10.525   2.961   4.609
 1172SOL     MW18800  10.438   2.953   4.611
 1173SOL     OW18801  11.280   0.447   3.122
 1173SOL    HW118802  11.188   0.456   3.149
 1173SOL    HW218803  11.290   0.507   3.050
 1173SOL     MW18804  11.270   0.455   3.117
 1174SOL     OW18805  12.813   3.190   3.280
 1174SOL    HW118806  12.752   3.195   3.354
 1174SOL    HW218807  12.857   3.274   3.279
 1174SOL     MW18808  12.811   3.200   3.289
 1175SOL     OW18809  10.713   2.045   6.025
 1175SOL    HW118810  10.792   2.100   6.022
 1175SOL    HW218811  10.655   2.092   6.083
 1175SOL     MW18812  10.716   2.057   6.032
 1176SOL     OW18813  10.145   0.676   4.533
 1176SOL    HW118814  10.131   0.747   4.469
 1176SOL    HW218815  10.065   0.625   4.528
 1176SOL     MW18816  10.133   0.679   4.524
 1177SOL     OW18817  10.505   0.579   3.335
 1177SOL    HW118818  10.479   0.494   3.370
 1177SOL    HW218819  10.438   0.639   3.364
 1177SOL     MW18820  10.494   0.576   3.343
 1178SOL     OW18821  13.252   3.326   5.234
 1178SOL    HW118822  13.340   3.294   5.254
 1178SOL    HW218823  13.242   3.309   5.141
 1178SOL     MW18824  13.261   3.320   5.225
 1179SOL     OW18825  11.717   3.382   3.435
 1179SOL    HW118826  11.635   3.384   3.384
 1179SOL    HW218827  11.726   3.291   3.460
 1179SOL     MW18828  11.708   3.372   3.432
 1180SOL     OW18829  13.047   0.297   4.954
 1180SOL    HW118830  13.120   0.309   4.892
 1180SOL    HW218831  12.987   0.367   4.934
 1180SOL     MW18832  13.049   0.307   4.944
 1181SOL     OW18833  11.144   2.218   4.534
 1181SOL    HW118834  11.070   2.161   4.557
 1181SOL    HW218835  11.115   2.305   4.560
 1181SOL     MW18836  11.131   2.222   4.540
 1182SOL     OW18837  11.975   2.954   4.199
 1182SOL    HW118838  12.007   2.975   4.288
 1182SOL    HW218839  12.045   2.903   4.161
 1182SOL     MW18840  11.988   2.950   4.206
 1183SOL     OW18841  10.559   2.356   5.076
 1183SOL    HW118842  10.490   2.414   5.111
 1183SOL    HW218843  10.555   2.279   5.131
 1183SOL     MW18844  10.550   2.354   5.087
 1184SOL     OW18845  11.053   2.873   5.470
 1184SOL    HW118846  11.081   2.964   5.458
 1184SOL    HW218847  11.113   2.822   5.416
 1184SOL     MW18848  11.064   2.878   5.462
 1185SOL     OW18849  13.219   1.164   4.208
 1185SOL    HW118850  13.226   1.221   4.286
 1185SOL    HW218851  13.162   1.213   4.149
 1185SOL     MW18852  13.213   1.177   4.211
 1186SOL     OW18853  10.164   1.360   4.774
 1186SOL    HW118854  10.236   1.423   4.789
 1186SOL    HW218855  10.086   1.414   4.774
 1186SOL     MW18856  10.163   1.374   4.776
 1187SOL     OW18857  11.249   0.594   3.986
 1187SOL    HW118858  11.194   0.610   4.063
 1187SOL    HW218859  11.294   0.676   3.971
 1187SOL     MW18860  11.248   0.606   3.994
 1188SOL     OW18861  13.096   1.466   4.910
 1188SOL    HW118862  13.071   1.522   4.836
 1188SOL    HW218863  13.034   1.393   4.906
 1188SOL     MW18864  13.086   1.464   4.900
 1189SOL     OW18865  10.752   2.480   3.330
 1189SOL    HW118866  10.748   2.438   3.243
 1189SOL    HW218867  10.829   2.442   3.371
 1189SOL     MW18868  10.761   2.471   3.324
 1190SOL     OW18869  12.933   0.870   4.941
 1190SOL    HW118870  12.850   0.919   4.946
 1190SOL    HW218871  12.923   0.816   4.865
 1190SOL     MW18872  12.922   0.870   4.933
 1191SOL     OW18873  10.896   0.934   6.464
 1191SOL    HW118874  10.942   0.974   6.390
 1191SOL    HW218875  10.879   0.845   6.436
 1191SOL     MW18876  10.900   0.928   6.452
 1192SOL     OW18877  12.679   0.526   3.989
 1192SOL    HW118878  12.615   0.597   3.976
 1192SOL    HW218879  12.684   0.515   4.083
 1192SOL     MW18880  12.672   0.533   3.998
 1193SOL     OW18881  11.155   3.396   3.089
 1193SOL    HW118882  11.216   3.461   3.126
 1193SOL    HW218883  11.078   3.447   3.065
 1193SOL     MW18884  11.153   3.410   3.091
 1194SOL     OW18885  10.667   1.208   5.412
 1194SOL    HW118886  10.712   1.145   5.356
 1194SOL    HW218887  10.657   1.285   5.357
 1194SOL     MW18888  10.671   1.210   5.399
 1195SOL     OW18889  10.749   0.194   4.184
 1195SOL    HW118890  10.769   0.175   4.276
 1195SOL    HW218891  10.668   0.243   4.187
 1195SOL     MW18892  10.742   0.198   4.196
 1196SOL     OW18893  10.441   0.584   4.224
 1196SOL    HW118894  10.380   0.555   4.294
 1196SOL    HW218895  10.462   0.673   4.247
 1196SOL     MW18896  10.436   0.591   4.235
 1197SOL     OW18897  11.601   3.097   6.232
 1197SOL    HW118898  11.554   3.146   6.163
 1197SOL    HW218899  11.545   3.103   6.307
 1197SOL     MW18900  11.589   3.104   6.232
 1198SOL     OW18901  10.105   0.927   5.239
 1198SOL    HW118902  10.066   0.869   5.306
 1198SOL    HW218903  10.073   1.013   5.261
 1198SOL     MW18904  10.097   0.930   5.250
 1199SOL     OW18905  10.530   0.542   6.165
 1199SOL    HW118906  10.586   0.609   6.204
 1199SOL    HW218907  10.563   0.460   6.201
 1199SOL     MW18908  10.541   0.540   6.174
 1200SOL     OW18909  11.435   2.098   4.537
 1200SOL    HW118910  11.517   2.097   4.587
 1200SOL    HW218911  11.462   2.097   4.446
 1200SOL     MW18912  11.448   2.097   4.532
 1201SOL     OW18913  10.252   0.611   6.429
 1201SOL    HW118914  10.156   0.614   6.424
 1201SOL    HW218915  10.273   0.655   6.510
 1201SOL     MW18916  10.242   0.616   6.438
 1202SOL     OW18917  12.542   1.600   4.311
 1202SOL    HW118918  12.545   1.516   4.357
 1202SOL    HW218919  12.450   1.611   4.289
 1202SOL     MW18920  12.531   1.591   4.314
 1203SOL     OW18921  10.528   1.640   6.464
 1203SOL    HW118922  10.456   1.685   6.510
 1203SOL    HW218923  10.605   1.689   6.491
 1203SOL     MW18924  10.528   1.652   6.473
 1204SOL     OW18925  12.023   1.638   5.316
 1204SOL    HW118926  12.018   1.565   5.379
 1204SOL    HW218927  11.968   1.706   5.354
 1204SOL     MW18928  12.016   1.637   5.328
 1205SOL     OW18929  11.995   0.611   4.432
 1205SOL    HW118930  11.994   0.551   4.507
 1205SOL    HW218931  11.904   0.626   4.412
 1205SOL     MW18932  11.984   0.605   4.439
 1206SOL     OW18933  12.216   0.326   4.970
 1206SOL    HW118934  12.245   0.344   5.060
 1206SOL    HW218935  12.257   0.243   4.948
 1206SOL     MW18936  12.224   0.319   4.978
 1207SOL     OW18937  12.377   1.013   5.435
 1207SOL    HW118938  12.286   0.989   5.450
 1207SOL    HW218939  12.378   1.108   5.445
 1207SOL     MW18940  12.366   1.021   5.438
 1208SOL     OW18941  12.104   0.268   6.234
 1208SOL    HW118942  12.059   0.322   6.300
 1208SOL    HW218943  12.196   0.285   6.250
 1208SOL     MW18944  12.110   0.277   6.244
 1209SOL     OW18945  11.623   1.847   5.293
 1209SOL    HW118946  11.676   1.817   5.367
 1209SOL    HW218947  11.542   1.797   5.299
 1209SOL     MW18948  11.620   1.837   5.302
 1210SOL     OW18949  12.685   2.863   3.500
 1210SOL    HW118950  12.760   2.816   3.463
 1210SOL    HW218951  12.698   2.953   3.473
 1210SOL     MW18952  12.696   2.868   3.492
 1211SOL     OW18953  12.421   1.813   4.372
 1211SOL    HW118954  12.356   1.842   4.437
 1211SOL    HW218955  12.489   1.879   4.376
 1211SOL     MW18956  12.421   1.824   4.381
 1212SOL     OW18957  10.432   1.732   3.680
 1212SOL    HW118958  10.348   1.695   3.651
 1212SOL    HW218959  10.489   1.657   3.687
 1212SOL     MW18960  10.428   1.719   3.677
 1213SOL     OW18961  11.957   1.440   4.720
 1213SOL    HW118962  12.019   1.444   4.647
 1213SOL    HW218963  11.892   1.505   4.699
 1213SOL     MW18964  11.957   1.448   4.709
 1214SOL     OW18965  12.172   2.297   5.975
 1214SOL    HW118966  12.250   2.298   6.032
 1214SOL    HW218967  12.101   2.322   6.033
 1214SOL     MW18968  12.173   2.300   5.989
 1215SOL     OW18969  11.486   2.033   3.879
 1215SOL    HW118970  11.546   2.046   3.806
 1215SOL    HW218971  11.433   2.112   3.881
 1215SOL     MW18972  11.487   2.044   3.870
 1216SOL     OW18973  12.117   0.161   4.554
 1216SOL    HW118974  12.122   0.249   4.514
 1216SOL    HW218975  12.049   0.117   4.505
 1216SOL     MW18976  12.110   0.167   4.543
 1217SOL     OW18977  11.916   1.679   6.133
 1217SOL    HW118978  11.939   1.765   6.172
 1217SOL    HW218979  11.998   1.631   6.133
 1217SOL     MW18980  11.928   1.684   6.138
 1218SOL     OW18981  10.356   1.113   5.197
 1218SOL    HW118982  10.293   1.042   5.213
 1218SOL    HW218983  10.406   1.119   5.277
 1218SOL     MW18984  10.354   1.105   5.208
 1219SOL     OW18985  10.937   1.769   3.379
 1219SOL    HW118986  10.877   1.732   3.312
 1219SOL    HW218987  10.998   1.822   3.329
 1219SOL     MW18988  10.937   1.771   3.365
 1220SOL     OW18989  10.471   1.813   3.368
 1220SOL    HW118990  10.476   1.745   3.436
 1220SOL    HW218991  10.385   1.801   3.329
 1220SOL     MW18992  10.462   1.803   3.372
 1221SOL     OW18993  12.237   2.540   4.862
 1221SOL    HW118994  12.235   2.515   4.769
 1221SOL    HW218995  12.160   2.595   4.873
 1221SOL     MW18996  12.227   2.543   4.852
 1222SOL     OW18997  11.111   2.835   5.964
 1222SOL    HW118998  11.171   2.873   5.899
 1222SOL    HW218999  11.027   2.875   5.944
 1222SOL     MW19000  11.108   2.844   5.953
 1223SOL     OW19001  10.891   1.136   3.131
 1223SOL    HW119002  10.981   1.164   3.114
 1223SOL    HW219003  10.862   1.098   3.049
 1223SOL     MW19004  10.898   1.134   3.120
 1224SOL     OW19005  12.398   1.578   4.078
 1224SOL    HW119006  12.310   1.610   4.101
 1224SOL    HW219007  12.410   1.608   3.989
 1224SOL     MW19008  12.389   1.586   4.070
 1225SOL     OW19009  13.186   1.640   6.162
 1225SOL    HW119010  13.261   1.612   6.109
 1225SOL    HW219011  13.225   1.696   6.228
 1225SOL     MW19012  13.200   1.643   6.164
 1226SOL     OW19013  11.688   0.468   3.882
 1226SOL    HW119014  11.679   0.490   3.976
 1226SOL    HW219015  11.762   0.519   3.853
 1226SOL     MW19016  11.696   0.477   3.890
 1227SOL     OW19017  13.288   1.107   5.063
 1227SOL    HW119018  13.340   1.154   4.997
 1227SOL    HW219019  13.199   1.133   5.046
 1227SOL     MW19020  13.284   1.115   5.053
 1228SOL     OW19021  11.554   0.676   5.986
 1228SOL    HW119022  11.480   0.686   5.925
 1228SOL    HW219023  11.576   0.584   5.981
 1228SOL     MW19024  11.547   0.666   5.978
 1229SOL     OW19025  10.243   3.055   3.050
 1229SOL    HW119026  10.281   2.995   3.115
 1229SOL    HW219027  10.150   3.050   3.067
 1229SOL     MW19028  10.237   3.047   3.060
 1230SOL     OW19029  12.580   3.130   4.966
 1230SOL    HW119030  12.566   3.082   4.883
 1230SOL    HW219031  12.535   3.078   5.030
 1230SOL     MW19032  12.573   3.118   4.963
 1231SOL     OW19033  10.852   2.926   5.223
 1231SOL    HW119034  10.828   2.921   5.317
 1231SOL    HW219035  10.808   2.852   5.185
 1231SOL     MW19036  10.844   2.917   5.230
 1232SOL     OW19037  13.254   2.053   5.781
 1232SOL    HW119038  13.209   1.972   5.758
 1232SOL    HW219039  13.341   2.043   5.744
 1232SOL     MW19040  13.259   2.042   5.774
 1233SOL     OW19041  11.032   3.317   4.606
 1233SOL    HW119042  10.967   3.269   4.659
 1233SOL    HW219043  11.013   3.408   4.623
 1233SOL     MW19044  11.022   3.322   4.614
 1234SOL     OW19045  13.197   1.716   4.202
 1234SOL    HW119046  13.160   1.691   4.287
 1234SOL    HW219047  13.251   1.792   4.221
 1234SOL     MW19048  13.199   1.722   4.214
 1235SOL     OW19049  11.217   2.712   6.190
 1235SOL    HW119050  11.244   2.698   6.098
 1235SOL    HW219051  11.257   2.795   6.214
 1235SOL     MW19052  11.225   2.720   6.181
 1236SOL     OW19053  11.072   1.722   3.808
 1236SOL    HW119054  11.151   1.711   3.755
 1236SOL    HW219055  11.034   1.804   3.777
 1236SOL     MW19056  11.077   1.730   3.798
 1237SOL     OW19057  11.782   0.080   5.366
 1237SOL    HW119058  11.797   0.142   5.438
 1237SOL    HW219059  11.829   0.002   5.393
 1237SOL     MW19060  11.790   0.078   5.378
 1238SOL     OW19061  10.067   1.031   3.443
 1238SOL    HW119062  10.073   1.125   3.464
 1238SOL    HW219063  10.153   0.997   3.463
 1238SOL     MW19064  10.078   1.039   3.448
 1239SOL     OW19065  13.009   1.303   5.127
 1239SOL    HW119066  12.984   1.236   5.062
 1239SOL    HW219067  13.101   1.320   5.108
 1239SOL     MW19068  13.017   1.297   5.117
 1240SOL     OW19069  13.148   0.419   5.553
 1240SOL    HW119070  13.075   0.407   5.492
 1240SOL    HW219071  13.203   0.343   5.538
 1240SOL     MW19072  13.146   0.409   5.544
 1241SOL     OW19073  11.565   0.713   3.902
 1241SOL    HW119074  11.652   0.707   3.944
 1241SOL    HW219075  11.520   0.635   3.932
 1241SOL     MW19076  11.570   0.703   3.911
 1242SOL     OW19077  11.058   2.534   3.492
 1242SOL    HW119078  11.021   2.601   3.434
 1242SOL    HW219079  11.067   2.457   3.437
 1242SOL     MW19080  11.055   2.533   3.478
 1243SOL     OW19081  12.110   0.074   3.585
 1243SOL    HW119082  12.082  -0.000   3.530
 1243SOL    HW219083  12.195   0.098   3.550
 1243SOL     MW19084  12.116   0.068   3.574
 1244SOL     OW19085  12.810   2.035   4.422
 1244SOL    HW119086  12.737   2.073   4.472
 1244SOL    HW219087  12.878   2.022   4.487
 1244SOL     MW19088  12.809   2.038   4.436
 1245SOL     OW19089  11.200   0.560   5.347
 1245SOL    HW119090  11.145   0.618   5.294
 1245SOL    HW219091  11.240   0.502   5.284
 1245SOL     MW19092  11.198   0.561   5.333
 1246SOL     OW19093  12.546   2.131   3.263
 1246SOL    HW119094  12.489   2.109   3.189
 1246SOL    HW219095  12.491   2.181   3.321
 1246SOL     MW19096  12.533   2.134   3.261
 1247SOL     OW19097  13.297   3.323   5.517
 1247SOL    HW119098  13.321   3.253   5.579
 1247SOL    HW219099  13.203   3.329   5.523
 1247SOL     MW19100  13.289   3.315   5.525
 1248SOL     OW19101  11.705   1.988   6.101
 1248SOL    HW119102  11.747   1.924   6.042
 1248SOL    HW219103  11.777   2.037   6.137
 1248SOL     MW19104  11.719   1.986   6.098
 1249SOL     OW19105  11.470   2.804   3.588
 1249SOL    HW119106  11.388   2.770   3.625
 1249SOL    HW219107  11.445   2.889   3.552
 1249SOL     MW19108  11.457   2.810   3.588
 1250SOL     OW19109  11.158   0.936   4.708
 1250SOL    HW119110  11.123   1.000   4.771
 1250SOL    HW219111  11.250   0.930   4.728
 1250SOL     MW19112  11.164   0.943   4.718
 1251SOL     OW19113  11.266   2.228   4.983
 1251SOL    HW119114  11.251   2.158   4.918
 1251SOL    HW219115  11.334   2.281   4.944
 1251SOL     MW19116  11.272   2.225   4.971
 1252SOL     OW19117  10.559   1.273   3.622
 1252SOL    HW119118  10.471   1.252   3.655
 1252SOL    HW219119  10.584   1.351   3.669
 1252SOL     MW19120  10.551   1.280   3.632
 1253SOL     OW19121  12.087   3.392   6.395
 1253SOL    HW119122  12.100   3.367   6.303
 1253SOL    HW219123  11.995   3.417   6.399
 1253SOL     MW19124  12.078   3.392   6.384
 1254SOL     OW19125  11.764   2.866   4.213
 1254SOL    HW119126  11.708   2.819   4.151
 1254SOL    HW219127  11.800   2.797   4.268
 1254SOL     MW19128  11.761   2.852   4.212
 1255SOL     OW19129  10.407   0.523   5.558
 1255SOL    HW119130  10.409   0.616   5.582
 1255SOL    HW219131  10.318   0.495   5.577
 1255SOL     MW19132  10.397   0.531   5.563
 1256SOL     OW19133  10.912   2.124   3.951
 1256SOL    HW119134  10.831   2.155   3.908
 1256SOL    HW219135  10.927   2.039   3.911
 1256SOL     MW19136  10.904   2.118   3.941
 1257SOL     OW19137  11.576   0.783   3.566
 1257SOL    HW119138  11.569   0.861   3.512
 1257SOL    HW219139  11.486   0.755   3.579
 1257SOL     MW19140  11.564   0.789   3.561
 1258SOL     OW19141  10.514   0.068   5.046
 1258SOL    HW119142  10.528  -0.000   4.980
 1258SOL    HW219143  10.519   0.149   4.997
 1258SOL     MW19144  10.516   0.069   5.032
 1259SOL     OW19145  11.308   1.547   3.647
 1259SOL    HW119146  11.255   1.605   3.590
 1259SOL    HW219147  11.382   1.523   3.594
 1259SOL     MW19148  11.310   1.551   3.634
 1260SOL     OW19149  10.300   1.622   6.315
 1260SOL    HW119150  10.392   1.600   6.297
 1260SOL    HW219151  10.303   1.708   6.354
 1260SOL     MW19152  10.311   1.630   6.317
 1261SOL     OW19153  10.996   0.251   6.251
 1261SOL    HW119154  11.043   0.309   6.191
 1261SOL    HW219155  10.912   0.238   6.210
 1261SOL     MW19156  10.992   0.256   6.239
 1262SOL     OW19157  12.779   0.499   6.137
 1262SOL    HW119158  12.739   0.448   6.208
 1262SOL    HW219159  12.806   0.434   6.073
 1262SOL     MW19160  12.777   0.485   6.138
 1263SOL     OW19161  12.486   1.505   5.326
 1263SOL    HW119162  12.433   1.449   5.385
 1263SOL    HW219163  12.548   1.547   5.383
 1263SOL     MW19164  12.487   1.503   5.340
 1264SOL     OW19165  11.943   0.797   6.352
 1264SOL    HW119166  11.964   0.815   6.444
 1264SOL    HW219167  11.849   0.810   6.346
 1264SOL     MW19168  11.934   0.800   6.362
 1265SOL     OW19169  13.340   2.410   5.834
 1265SOL    HW119170  13.335   2.481   5.770
 1265SOL    HW219171  13.274   2.348   5.806
 1265SOL     MW19172  13.332   2.411   5.823
 1266SOL     OW19173  13.021   0.626   4.214
 1266SOL    HW119174  13.101   0.678   4.224
 1266SOL    HW219175  13.007   0.587   4.300
 1266SOL     MW19176  13.029   0.627   4.226
 1267SOL     OW19177  11.092   1.577   6.134
 1267SOL    HW119178  11.099   1.577   6.037
 1267SOL    HW219179  11.073   1.487   6.156
 1267SOL     MW19180  11.091   1.566   6.124
 1268SOL     OW19181  12.053   1.286   4.338
 1268SOL    HW119182  12.014   1.373   4.326
 1268SOL    HW219183  12.094   1.291   4.424
 1268SOL     MW19184  12.053   1.298   4.347
 1269SOL     OW19185  13.100   1.438   4.081
 1269SOL    HW119186  13.073   1.517   4.033
 1269SOL    HW219187  13.022   1.385   4.084
 1269SOL     MW19188  13.088   1.442   4.075
 1270SOL     OW19189  11.529   0.906   6.425
 1270SOL    HW119190  11.516   0.982   6.366
 1270SOL    HW219191  11.458   0.848   6.404
 1270SOL     MW19192  11.519   0.909   6.415
 1271SOL     OW19193  10.652   1.849   6.128
 1271SOL    HW119194  10.615   1.886   6.209
 1271SOL    HW219195  10.587   1.786   6.100
 1271SOL     MW19196  10.640   1.846   6.135
 1272SOL     OW19197  12.002   0.068   4.988
 1272SOL    HW119198  12.021  -0.002   4.923
 1272SOL    HW219199  12.068   0.133   4.970
 1272SOL     MW19200  12.012   0.067   4.977
 1273SOL     OW19201  13.177   2.991   3.924
 1273SOL    HW119202  13.094   2.968   3.881
 1273SOL    HW219203  13.151   3.047   3.997
 1273SOL     MW19204  13.164   2.995   3.928
 1274SOL     OW19205  10.450   2.933   3.242
 1274SOL    HW119206  10.503   2.878   3.301
 1274SOL    HW219207  10.415   3.001   3.299
 1274SOL     MW19208  10.452   2.934   3.256
 1275SOL     OW19209  11.983   1.447   3.541
 1275SOL    HW119210  11.976   1.388   3.466
 1275SOL    HW219211  12.071   1.480   3.537
 1275SOL     MW19212  11.992   1.444   3.531
 1276SOL     OW19213  13.199   3.139   3.731
 1276SOL    HW119214  13.157   3.179   3.808
 1276SOL    HW219215  13.291   3.161   3.740
 1276SOL     MW19216  13.205   3.146   3.741
 1277SOL     OW19217  11.769   3.167   4.407
 1277SOL    HW119218  11.847   3.204   4.364
 1277SOL    HW219219  11.697   3.221   4.377
 1277SOL     MW19220  11.770   3.178   4.398
 1278SOL     OW19221  12.343   2.325   4.723
 1278SOL    HW119222  12.378   2.237   4.710
 1278SOL    HW219223  12.406   2.382   4.679
 1278SOL     MW19224  12.355   2.321   4.716
 1279SOL     OW19225  11.955   2.233   4.052
 1279SOL    HW119226  12.003   2.303   4.007
 1279SOL    HW219227  11.869   2.271   4.070
 1279SOL     MW19228  11.950   2.246   4.049
 1280SOL     OW19229  12.204   2.005   4.465
 1280SOL    HW119230  12.159   1.937   4.517
 1280SOL    HW219231  12.174   2.086   4.504
 1280SOL     MW19232  12.195   2.006   4.476
 1281SOL     OW19233  12.483   1.252   6.195
 1281SOL    HW119234  12.547   1.290   6.135
 1281SOL    HW219235  12.424   1.323   6.214
 1281SOL     MW19236  12.484   1.265   6.190
 1282SOL     OW19237  10.683   2.346   6.161
 1282SOL    HW119238  10.753   2.280   6.154
 1282SOL    HW219239  10.671   2.376   6.072
 1282SOL     MW19240  10.690   2.342   6.150
 1283SOL     OW19241  11.762   1.818   3.817
 1283SOL    HW119242  11.834   1.822   3.753
 1283SOL    HW219243  11.709   1.894   3.798
 1283SOL     MW19244  11.764   1.827   3.807
 1284SOL     OW19245  10.409   2.307   4.735
 1284SOL    HW119246  10.403   2.399   4.709
 1284SOL    HW219247  10.368   2.259   4.664
 1284SOL     MW19248  10.404   2.312   4.724
 1285SOL     OW19249  11.672   3.157   6.478
 1285SOL    HW119250  11.764   3.174   6.505
 1285SOL    HW219251  11.654   3.070   6.510
 1285SOL     MW19252  11.681   3.149   6.485
 1286SOL     OW19253  12.809   1.614   5.233
 1286SOL    HW119254  12.741   1.615   5.300
 1286SOL    HW219255  12.858   1.694   5.248
 1286SOL     MW19256  12.807   1.623   5.243
 1287SOL     OW19257  11.923   1.567   3.153
 1287SOL    HW119258  11.855   1.534   3.213
 1287SOL    HW219259  11.939   1.495   3.093
 1287SOL     MW19260  11.916   1.555   3.153
 1288SOL     OW19261  12.295   1.112   4.201
 1288SOL    HW119262  12.267   1.186   4.146
 1288SOL    HW219263  12.237   1.116   4.277
 1288SOL     MW19264  12.284   1.122   4.204
 1289SOL     OW19265  11.591   0.022   5.256
 1289SOL    HW119266  11.570  -0.003   5.165
 1289SOL    HW219267  11.565   0.113   5.262
 1289SOL     MW19268  11.585   0.029   5.246
 1290SOL     OW19269  12.106   2.657   5.775
 1290SOL    HW119270  12.037   2.714   5.740
 1290SOL    HW219271  12.163   2.640   5.701
 1290SOL     MW19272  12.105   2.662   5.762
 1291SOL     OW19273  11.771   0.721   5.629
 1291SOL    HW119274  11.853   0.687   5.590
 1291SOL    HW219275  11.773   0.814   5.608
 1291SOL     MW19276  11.781   0.728   5.622
 1292SOL     OW19277  13.303   2.485   4.587
 1292SOL    HW119278  13.339   2.539   4.515
 1292SOL    HW219279  13.212   2.474   4.563
 1292SOL     MW19280  13.297   2.490   4.575
 1293SOL     OW19281  12.418   2.569   5.253
 1293SOL    HW119282  12.355   2.624   5.300
 1293SOL    HW219283  12.475   2.536   5.321
 1293SOL     MW19284  12.417   2.572   5.267
 1294SOL     OW19285  12.586   1.067   3.083
 1294SOL    HW119286  12.630   1.153   3.091
 1294SOL    HW219287  12.494   1.088   3.076
 1294SOL     MW19288  12.581   1.080   3.083
 1295SOL     OW19289  11.482   2.358   3.466
 1295SOL    HW119290  11.493   2.335   3.373
 1295SOL    HW219291  11.569   2.382   3.494
 1295SOL     MW19292  11.494   2.358   3.458
 1296SOL     OW19293  11.926   2.948   5.814
 1296SOL    HW119294  11.893   2.982   5.897
 1296SOL    HW219295  11.871   2.988   5.748
 1296SOL     MW19296  11.915   2.957   5.816
 1297SOL     OW19297  12.353   1.192   3.796
 1297SOL    HW119298  12.311   1.273   3.826
 1297SOL    HW219299  12.386   1.151   3.875
 1297SOL     MW19300  12.352   1.197   3.809
 1298SOL     OW19301  10.208   2.376   4.225
 1298SOL    HW119302  10.131   2.428   4.250
 1298SOL    HW219303  10.275   2.441   4.206
 1298SOL     MW19304  10.207   2.390   4.225
 1299SOL     OW19305  10.750   1.099   3.833
 1299SOL    HW119306  10.701   1.167   3.786
 1299SOL    HW219307  10.814   1.147   3.884
 1299SOL     MW19308  10.751   1.113   3.833
 1300SOL     OW19309  11.189   0.580   5.691
 1300SOL    HW119310  11.264   0.530   5.723
 1300SOL    HW219311  11.216   0.611   5.606
 1300SOL     MW19312  11.201   0.578   5.685
  23.35725   3.48420   100.00000
