[moleculetype]
; name nrexcl
water  1

[atoms]
; nr type resnr residu atom cgnr charge
1     V_OWT4 1     water  OW1  1     0        15.9994 
2     V_HW   1     water  HW2  1     0.5564    1.00794
3     V_HW   1     water  HW3  1     0.5564    1.00794
4     V_IW   1     water  MW4  1    -1.1128    0.0

[constraints]
;i j funct doh  dhh
1       2       1       0.09572
1       3       1       0.09572
2       3       1       0.15139

[exclusions]
1       2       3       4
2       1       3	4
3       1       2       4
4       1       2       3


; The position of the dummy is computed as follows:
;
;		O
;  	      
;	    	D
;	  
;	H		H
;
; const = distance (OD) / [ cos (angle(DOH)) 	* distance (OH) ]
;	  0.015 nm	/ [ cos (52.26 deg)	* 0.09572 nm	]

; Dummy pos x4 = x1 + a*(x2-x1) + b*(x3-x1)


[dummies3]
; Dummy from			funct	a		b
4       1       2       3       1       0.13193828      0.13193828 


[moleculetype]
; name nrexcl
V_Na  1

[atoms]
; nr type resnr residu atom cgnr charge
     1     V_Na      1    Na    Na       1     0.8500     22.9898

[moleculetype]
; name nrexcl
V_Cl  1

[atoms]
; nr type resnr residu atom cgnr charge
     1     V_Cl      1    Cl    Cl       1    -0.8500     35.453

[ moleculetype ]
; molname       nrexcl
V_Mg      1

[ atoms ]
; id    at type     res nr  residu name at name  cg nr  charge   mass
     1     V_Mg      1    Mg     Mg      1     1.7        24.3050

[ moleculetype ]
; molname       nrexcl
V_Ca      1

[ atoms ]
; id    at type     res nr  residu name at name  cg nr  charge   mass
1       V_Ca          1       Ca          Ca       1       1.7     40.078

[moleculetype]
; name nrexcl
V_K   1

[atoms]
; nr type resnr residu atom cgnr charge
     1     V_K       1    K     K        1     0.8500     39.0983

[moleculetype]
; name nrexcl
V_Li  1

[atoms]
; nr type resnr residu atom cgnr charge
     1     V_Li      1    Li    Li       1     0.8500     6.94100

[moleculetype]
; name nrexcl
V_SO4   1

[atoms]
;nr   type resnr residu atom cgnr  charge
1     V_OSO4 1     SO4    O1   1    -0.65      24.01565
2     V_OSO4 1     SO4    O2   1    -0.65      24.01565
3     V_OSO4 1     SO4    O3   1    -0.65      24.01565
4     V_OSO4 1     SO4    O4   1    -0.65      24.01565
5     V_SSO4 1     SO4    S5   1     0.9        0.0

[constraints]
;i      j     funct     dist
; dist_OX=0.149; dist_XX=2*sqrt(2/3)*dist_OX
1       2       1       0.243316
1       3       1       0.243316
1       4       1       0.243316
2       3       1       0.243316
2       4       1       0.243316
3       4       1       0.243316

[exclusions]
1       2       3       4       5
2       1       3       4       5
3       1       2       4       5
4       1       2       3       5
5       1       2       3       4

[ virtual_sitesn ]

; Site funct from
5       1   1 2 3 4
