Built with Packmol
 5200
    1SOL     OW    1  11.731   1.367   6.248
    1SOL    HW1    2  11.654   1.323   6.286
    1SOL    HW2    3  11.779   1.297   6.205
    1SOL     MW    4  11.727   1.353   6.247
    2SOL     OW    5  11.712   3.048   5.528
    2SOL    HW1    6  11.728   3.142   5.539
    2SOL    HW2    7  11.796   3.007   5.542
    2SOL     MW    8  11.724   3.055   5.531
    3SOL     OW    9  10.390   1.445   3.436
    3SOL    HW1   10  10.377   1.508   3.508
    3SOL    HW2   11  10.481   1.456   3.411
    3SOL     MW   12  10.399   1.454   3.442
    4SOL     OW   13  11.618   0.486   6.488
    4SOL    HW1   14  11.594   0.426   6.417
    4SOL    HW2   15  11.709   0.507   6.471
    4SOL     MW   16  11.626   0.481   6.477
    5SOL     OW   17  12.041   0.775   4.118
    5SOL    HW1   18  12.024   0.717   4.193
    5SOL    HW2   19  12.129   0.808   4.134
    5SOL     MW   20  12.049   0.772   4.129
    6SOL     OW   21  11.328   0.739   5.467
    6SOL    HW1   22  11.276   0.770   5.391
    6SOL    HW2   23  11.342   0.818   5.518
    6SOL     MW   24  11.323   0.752   5.464
    7SOL     OW   25  10.213   1.285   5.712
    7SOL    HW1   26  10.223   1.192   5.690
    7SOL    HW2   27  10.120   1.302   5.701
    7SOL     MW   28  10.203   1.276   5.708
    8SOL     OW   29  10.206   1.867   4.331
    8SOL    HW1   30  10.297   1.890   4.353
    8SOL    HW2   31  10.214   1.810   4.255
    8SOL     MW   32  10.218   1.863   4.325
    9SOL     OW   33  12.008   2.356   3.695
    9SOL    HW1   34  11.976   2.387   3.609
    9SOL    HW2   35  11.953   2.281   3.714
    9SOL     MW   36  11.998   2.351   3.687
   10SOL     OW   37  10.286   2.736   3.476
   10SOL    HW1   38  10.201   2.780   3.477
   10SOL    HW2   39  10.343   2.794   3.427
   10SOL     MW   40  10.283   2.748   3.470
   11SOL     OW   41  11.499   0.009   5.574
   11SOL    HW1   42  11.577  -0.004   5.629
   11SOL    HW2   43  11.532   0.007   5.485
   11SOL     MW   44  11.512   0.007   5.570
   12SOL     OW   45  12.237   0.617   5.972
   12SOL    HW1   46  12.195   0.692   6.016
   12SOL    HW2   47  12.328   0.642   5.965
   12SOL     MW   48  12.243   0.629   5.976
   13SOL     OW   49  10.123   2.424   4.987
   13SOL    HW1   50  10.045   2.414   5.043
   13SOL    HW2   51  10.115   2.511   4.951
   13SOL     MW   52  10.113   2.433   4.990
   14SOL     OW   53  11.415   1.960   4.122
   14SOL    HW1   54  11.360   1.895   4.077
   14SOL    HW2   55  11.501   1.950   4.082
   14SOL     MW   56  11.419   1.951   4.112
   15SOL     OW   57  11.416   3.153   4.945
   15SOL    HW1   58  11.462   3.112   4.872
   15SOL    HW2   59  11.459   3.118   5.022
   15SOL     MW   60  11.427   3.144   4.945
   16SOL     OW   61  12.317   2.241   5.528
   16SOL    HW1   62  12.361   2.170   5.480
   16SOL    HW2   63  12.307   2.310   5.464
   16SOL     MW   64  12.321   2.240   5.515
   17SOL     OW   65  11.645   2.541   5.633
   17SOL    HW1   66  11.643   2.616   5.572
   17SOL    HW2   67  11.603   2.574   5.711
   17SOL     MW   68  11.640   2.554   5.635
   18SOL     OW   69  10.123   1.527   5.641
   18SOL    HW1   70  10.074   1.560   5.565
   18SOL    HW2   71  10.214   1.531   5.613
   18SOL     MW   72  10.128   1.531   5.628
   19SOL     OW   73  12.589   0.957   6.510
   19SOL    HW1   74  12.633   0.881   6.471
   19SOL    HW2   75  12.497   0.936   6.506
   19SOL     MW   76  12.584   0.945   6.505
   20SOL     OW   77  10.758   1.238   4.437
   20SOL    HW1   78  10.789   1.268   4.523
   20SOL    HW2   79  10.729   1.149   4.451
   20SOL     MW   80  10.758   1.231   4.449
   21SOL     OW   81  11.066   2.506   5.491
   21SOL    HW1   82  11.114   2.455   5.425
   21SOL    HW2   83  11.133   2.558   5.534
   21SOL     MW   84  11.080   2.506   5.488
   22SOL     OW   85  11.743   2.887   3.088
   22SOL    HW1   86  11.732   2.799   3.126
   22SOL    HW2   87  11.656   2.926   3.094
   22SOL     MW   88  11.731   2.881   3.093
   23SOL     OW   89  13.128   2.073   5.521
   23SOL    HW1   90  13.101   2.103   5.608
   23SOL    HW2   91  13.192   2.006   5.539
   23SOL     MW   92  13.132   2.069   5.534
   24SOL     OW   93  11.619   0.822   5.333
   24SOL    HW1   94  11.654   0.806   5.421
   24SOL    HW2   95  11.606   0.734   5.298
   24SOL     MW   96  11.622   0.809   5.340
   25SOL     OW   97  11.464   2.251   6.063
   25SOL    HW1   98  11.384   2.278   6.016
   25SOL    HW2   99  11.440   2.256   6.154
   25SOL     MW  100  11.451   2.255   6.068
   26SOL     OW  101  10.827   2.031   4.137
   26SOL    HW1  102  10.769   2.074   4.201
   26SOL    HW2  103  10.914   2.062   4.162
   26SOL     MW  104  10.830   2.040   4.148
   27SOL     OW  105  11.948   0.146   6.139
   27SOL    HW1  106  11.961   0.184   6.051
   27SOL    HW2  107  11.860   0.112   6.137
   27SOL     MW  108  11.940   0.146   6.128
   28SOL     OW  109  10.839   1.512   6.159
   28SOL    HW1  110  10.809   1.505   6.250
   28SOL    HW2  111  10.874   1.600   6.153
   28SOL     MW  112  10.840   1.522   6.169
   29SOL     OW  113  11.211   3.224   5.564
   29SOL    HW1  114  11.122   3.238   5.597
   29SOL    HW2  115  11.257   3.303   5.587
   29SOL     MW  116  11.206   3.235   5.571
   30SOL     OW  117  10.955   1.698   6.423
   30SOL    HW1  118  10.921   1.714   6.511
   30SOL    HW2  119  11.041   1.738   6.423
   30SOL     MW  120  10.961   1.704   6.433
   31SOL     OW  121  13.233   0.000   5.105
   31SOL    HW1  122  13.237   0.065   5.176
   31SOL    HW2  123  13.142  -0.000   5.079
   31SOL     MW  124  13.223   0.008   5.111
   32SOL     OW  125  10.591   0.537   5.272
   32SOL    HW1  126  10.536   0.547   5.351
   32SOL    HW2  127  10.663   0.483   5.301
   32SOL     MW  128  10.592   0.532   5.285
   33SOL     OW  129  11.837   1.297   5.446
   33SOL    HW1  130  11.776   1.298   5.372
   33SOL    HW2  131  11.814   1.219   5.495
   33SOL     MW  132  11.827   1.288   5.443
   34SOL     OW  133  10.853   2.543   4.774
   34SOL    HW1  134  10.762   2.548   4.803
   34SOL    HW2  135  10.875   2.632   4.749
   34SOL     MW  136  10.845   2.554   4.774
   35SOL     OW  137  12.529   0.320   4.460
   35SOL    HW1  138  12.564   0.337   4.372
   35SOL    HW2  139  12.473   0.395   4.477
   35SOL     MW  140  12.526   0.331   4.451
   36SOL     OW  141  12.004   2.782   3.573
   36SOL    HW1  142  11.955   2.742   3.646
   36SOL    HW2  143  12.027   2.868   3.605
   36SOL     MW  144  12.001   2.787   3.586
   37SOL     OW  145  12.766   1.978   6.448
   37SOL    HW1  146  12.784   2.063   6.490
   37SOL    HW2  147  12.808   1.915   6.505
   37SOL     MW  148  12.773   1.981   6.460
   38SOL     OW  149  11.474   2.693   4.555
   38SOL    HW1  150  11.427   2.612   4.531
   38SOL    HW2  151  11.530   2.666   4.628
   38SOL     MW  152  11.475   2.680   4.561
   39SOL     OW  153  12.345   1.485   4.828
   39SOL    HW1  154  12.387   1.417   4.774
   39SOL    HW2  155  12.330   1.443   4.912
   39SOL     MW  156  12.348   1.472   4.832
   40SOL     OW  157  10.174   1.255   4.581
   40SOL    HW1  158  10.222   1.302   4.512
   40SOL    HW2  159  10.085   1.287   4.574
   40SOL     MW  160  10.170   1.264   4.572
   41SOL     OW  161  11.354   0.085   5.334
   41SOL    HW1  162  11.354   0.023   5.260
   41SOL    HW2  163  11.352   0.171   5.293
   41SOL     MW  164  11.354   0.088   5.320
   42SOL     OW  165  12.622   0.229   3.913
   42SOL    HW1  166  12.606   0.324   3.914
   42SOL    HW2  167  12.703   0.220   3.865
   42SOL     MW  168  12.630   0.239   3.907
   43SOL     OW  169  10.662   1.557   4.865
   43SOL    HW1  170  10.596   1.602   4.813
   43SOL    HW2  171  10.625   1.471   4.882
   43SOL     MW  172  10.650   1.552   4.861
   44SOL     OW  173  11.957   2.191   5.463
   44SOL    HW1  174  11.991   2.172   5.375
   44SOL    HW2  175  12.011   2.263   5.494
   44SOL     MW  176  11.968   2.198   5.456
   45SOL     OW  177  10.928   2.312   3.603
   45SOL    HW1  178  10.928   2.301   3.508
   45SOL    HW2  179  10.847   2.359   3.621
   45SOL     MW  180  10.919   2.316   3.594
   46SOL     OW  181  12.038   2.732   5.411
   46SOL    HW1  182  12.122   2.734   5.364
   46SOL    HW2  183  11.989   2.804   5.375
   46SOL     MW  184  12.042   2.741   5.401
   47SOL     OW  185  13.056   2.962   5.073
   47SOL    HW1  186  13.107   2.880   5.071
   47SOL    HW2  187  13.092   3.013   5.001
   47SOL     MW  188  13.066   2.958   5.064
   48SOL     OW  189  11.087   3.096   4.842
   48SOL    HW1  190  11.130   3.182   4.845
   48SOL    HW2  191  11.065   3.085   4.750
   48SOL     MW  192  11.090   3.105   4.831
   49SOL     OW  193  12.477   0.173   5.012
   49SOL    HW1  194  12.476   0.251   4.956
   49SOL    HW2  195  12.454   0.101   4.954
   49SOL     MW  196  12.474   0.174   4.999
   50SOL     OW  197  11.699   2.314   4.901
   50SOL    HW1  198  11.686   2.238   4.959
   50SOL    HW2  199  11.781   2.351   4.930
   50SOL     MW  200  11.707   2.309   4.911
   51SOL     OW  201  11.565  -0.002   6.186
   51SOL    HW1  202  11.584   0.033   6.098
   51SOL    HW2  203  11.527   0.071   6.232
   51SOL     MW  204  11.563   0.011   6.180
   52SOL     OW  205  11.307   0.371   6.045
   52SOL    HW1  206  11.341   0.296   5.995
   52SOL    HW2  207  11.252   0.332   6.111
   52SOL     MW  208  11.304   0.357   6.047
   53SOL     OW  209  11.309   1.114   3.829
   53SOL    HW1  210  11.320   1.091   3.736
   53SOL    HW2  211  11.371   1.059   3.874
   53SOL     MW  212  11.317   1.105   3.823
   54SOL     OW  213  12.499   0.753   5.872
   54SOL    HW1  214  12.521   0.729   5.781
   54SOL    HW2  215  12.575   0.727   5.922
   54SOL     MW  216  12.511   0.747   5.867
   55SOL     OW  217  11.196   1.654   5.357
   55SOL    HW1  218  11.256   1.613   5.294
   55SOL    HW2  219  11.249   1.666   5.435
   55SOL     MW  220  11.210   1.651   5.359
   56SOL     OW  221  10.244   1.838   5.497
   56SOL    HW1  222  10.296   1.913   5.526
   56SOL    HW2  223  10.308   1.770   5.479
   56SOL     MW  224  10.258   1.839   5.499
   57SOL     OW  225  12.394   3.220   4.777
   57SOL    HW1  226  12.392   3.126   4.756
   57SOL    HW2  227  12.484   3.245   4.760
   57SOL     MW  228  12.405   3.211   4.773
   58SOL     OW  229  12.613   2.369   3.688
   58SOL    HW1  230  12.681   2.342   3.625
   58SOL    HW2  231  12.642   2.454   3.717
   58SOL     MW  232  12.625   2.376   3.684
   59SOL     OW  233  11.674   1.169   3.389
   59SOL    HW1  234  11.605   1.118   3.432
   59SOL    HW2  235  11.643   1.179   3.299
   59SOL     MW  236  11.662   1.164   3.383
   60SOL     OW  237  13.338   1.689   4.508
   60SOL    HW1  238  13.325   1.737   4.425
   60SOL    HW2  239  13.340   1.598   4.482
   60SOL     MW  240  13.337   1.684   4.495
   61SOL     OW  241  11.154   2.290   6.511
   61SOL    HW1  242  11.134   2.318   6.421
   61SOL    HW2  243  11.179   2.199   6.502
   61SOL     MW  244  11.155   2.283   6.498
   62SOL     OW  245  10.276   3.210   4.642
   62SOL    HW1  246  10.262   3.305   4.647
   62SOL    HW2  247  10.200   3.178   4.595
   62SOL     MW  248  10.265   3.217   4.637
   63SOL     OW  249  13.078   2.427   5.167
   63SOL    HW1  250  13.061   2.332   5.178
   63SOL    HW2  251  12.991   2.465   5.164
   63SOL     MW  252  13.065   2.420   5.168
   64SOL     OW  253  10.092   1.728   3.824
   64SOL    HW1  254  10.014   1.725   3.879
   64SOL    HW2  255  10.162   1.699   3.881
   64SOL     MW  256  10.091   1.724   3.838
   65SOL     OW  257  10.998   1.244   5.501
   65SOL    HW1  258  10.993   1.329   5.456
   65SOL    HW2  259  11.082   1.209   5.475
   65SOL     MW  260  11.007   1.250   5.492
   66SOL     OW  261  10.231   0.879   5.880
   66SOL    HW1  262  10.290   0.834   5.942
   66SOL    HW2  263  10.152   0.893   5.931
   66SOL     MW  264  10.229   0.875   5.894
   67SOL     OW  265  13.229   0.164   6.124
   67SOL    HW1  266  13.244   0.082   6.171
   67SOL    HW2  267  13.172   0.214   6.181
   67SOL     MW  268  13.224   0.160   6.136
   68SOL     OW  269  11.137   1.436   4.361
   68SOL    HW1  270  11.109   1.417   4.452
   68SOL    HW2  271  11.203   1.371   4.343
   68SOL     MW  272  11.141   1.426   4.370
   69SOL     OW  273  13.194   1.468   5.478
   69SOL    HW1  274  13.126   1.532   5.457
   69SOL    HW2  275  13.275   1.516   5.466
   69SOL     MW  276  13.195   1.481   5.474
   70SOL     OW  277  12.286   2.922   5.002
   70SOL    HW1  278  12.266   2.987   5.070
   70SOL    HW2  279  12.380   2.925   4.994
   70SOL     MW  280  12.294   2.930   5.009
   71SOL     OW  281  12.627   0.298   5.497
   71SOL    HW1  282  12.691   0.301   5.569
   71SOL    HW2  283  12.574   0.221   5.516
   71SOL     MW  284  12.628   0.289   5.508
   72SOL     OW  285  10.336   2.542   6.166
   72SOL    HW1  286  10.376   2.461   6.201
   72SOL    HW2  287  10.343   2.532   6.072
   72SOL     MW  288  10.342   2.531   6.159
   73SOL     OW  289  13.039   2.761   6.251
   73SOL    HW1  290  13.053   2.694   6.184
   73SOL    HW2  291  13.021   2.712   6.330
   73SOL     MW  292  13.039   2.747   6.252
   74SOL     OW  293  11.421   1.413   4.972
   74SOL    HW1  294  11.480   1.387   5.043
   74SOL    HW2  295  11.343   1.359   4.985
   74SOL     MW  296  11.419   1.403   4.982
   75SOL     OW  297  11.104   2.826   3.784
   75SOL    HW1  298  11.019   2.862   3.813
   75SOL    HW2  299  11.100   2.734   3.806
   75SOL     MW  300  11.093   2.820   3.790
   76SOL     OW  301  12.774   3.304   4.979
   76SOL    HW1  302  12.763   3.377   5.041
   76SOL    HW2  303  12.706   3.318   4.914
   76SOL     MW  304  12.765   3.314   4.979
   77SOL     OW  305  12.925   0.082   5.587
   77SOL    HW1  306  12.854   0.085   5.522
   77SOL    HW2  307  12.969  -0.001   5.570
   77SOL     MW  308  12.922   0.072   5.577
   78SOL     OW  309  12.609   2.813   4.976
   78SOL    HW1  310  12.668   2.762   5.031
   78SOL    HW2  311  12.649   2.899   4.972
   78SOL     MW  312  12.621   2.817   4.982
   79SOL     OW  313  12.814   2.120   5.965
   79SOL    HW1  314  12.822   2.052   6.032
   79SOL    HW2  315  12.897   2.118   5.919
   79SOL     MW  316  12.825   2.112   5.968
   80SOL     OW  317  11.701   2.366   5.857
   80SOL    HW1  318  11.640   2.434   5.888
   80SOL    HW2  319  11.681   2.358   5.765
   80SOL     MW  320  11.691   2.373   5.850
   81SOL     OW  321  11.643   2.075   5.853
   81SOL    HW1  322  11.594   2.017   5.913
   81SOL    HW2  323  11.620   2.162   5.882
   81SOL     MW  324  11.634   2.078   5.864
   82SOL     OW  325  10.717   0.946   3.499
   82SOL    HW1  326  10.704   0.895   3.579
   82SOL    HW2  327  10.659   1.021   3.510
   82SOL     MW  328  10.709   0.949   3.510
   83SOL     OW  329  10.333   2.624   4.521
   83SOL    HW1  330  10.405   2.566   4.493
   83SOL    HW2  331  10.283   2.638   4.442
   83SOL     MW  332  10.336   2.619   4.508
   84SOL     OW  333  11.515   0.891   5.775
   84SOL    HW1  334  11.423   0.864   5.787
   84SOL    HW2  335  11.552   0.884   5.862
   84SOL     MW  336  11.508   0.887   5.787
   85SOL     OW  337  10.097   3.201   3.805
   85SOL    HW1  338  10.141   3.163   3.881
   85SOL    HW2  339  10.011   3.227   3.838
   85SOL     MW  340  10.092   3.200   3.818
   86SOL     OW  341  10.281   2.643   4.807
   86SOL    HW1  342  10.342   2.608   4.741
   86SOL    HW2  343  10.300   2.736   4.810
   86SOL     MW  344  10.291   2.650   4.799
   87SOL     OW  345  11.122   3.429   3.416
   87SOL    HW1  346  11.190   3.402   3.479
   87SOL    HW2  347  11.171   3.461   3.341
   87SOL     MW  348  11.136   3.430   3.415
   88SOL     OW  349  12.250   2.099   4.841
   88SOL    HW1  350  12.203   2.172   4.881
   88SOL    HW2  351  12.216   2.095   4.753
   88SOL     MW  352  12.240   2.107   4.836
   89SOL     OW  353  10.226   1.086   4.857
   89SOL    HW1  354  10.261   1.040   4.933
   89SOL    HW2  355  10.243   1.178   4.876
   89SOL     MW  356  10.232   1.091   4.869
   90SOL     OW  357  12.870   0.054   5.241
   90SOL    HW1  358  12.966   0.045   5.246
   90SOL    HW2  359  12.845  -0.000   5.168
   90SOL     MW  360  12.879   0.047   5.233
   91SOL     OW  361  12.701   3.032   3.105
   91SOL    HW1  362  12.646   3.105   3.075
   91SOL    HW2  363  12.680   3.022   3.197
   91SOL     MW  364  12.692   3.039   3.112
   92SOL     OW  365  12.831   2.225   5.030
   92SOL    HW1  366  12.817   2.253   5.121
   92SOL    HW2  367  12.753   2.254   4.984
   92SOL     MW  368  12.820   2.232   5.035
   93SOL     OW  369  10.130   3.333   4.024
   93SOL    HW1  370  10.047   3.378   4.005
   93SOL    HW2  371  10.148   3.354   4.115
   93SOL     MW  372  10.122   3.341   4.032
   94SOL     OW  373  12.876   0.019   6.344
   94SOL    HW1  374  12.877   0.084   6.415
   94SOL    HW2  375  12.967  -0.009   6.337
   94SOL     MW  376  12.887   0.023   6.352
   95SOL     OW  377  12.059   2.687   3.337
   95SOL    HW1  378  12.020   2.655   3.255
   95SOL    HW2  379  12.116   2.617   3.365
   95SOL     MW  380  12.061   2.675   3.330
   96SOL     OW  381  11.645   2.098   6.447
   96SOL    HW1  382  11.635   2.174   6.505
   96SOL    HW2  383  11.645   2.024   6.506
   96SOL     MW  384  11.644   2.098   6.461
   97SOL     OW  385  10.685   3.398   6.305
   97SOL    HW1  386  10.613   3.447   6.346
   97SOL    HW2  387  10.756   3.461   6.301
   97SOL     MW  388  10.684   3.412   6.309
   98SOL     OW  389  10.675   0.676   3.105
   98SOL    HW1  390  10.636   0.755   3.142
   98SOL    HW2  391  10.765   0.677   3.138
   98SOL     MW  392  10.681   0.686   3.114
   99SOL     OW  393  10.166   1.831   6.160
   99SOL    HW1  394  10.075   1.800   6.157
   99SOL    HW2  395  10.160   1.924   6.146
   99SOL     MW  396  10.154   1.838   6.158
  100SOL     OW  397  10.750   1.550   4.562
  100SOL    HW1  398  10.697   1.470   4.559
  100SOL    HW2  399  10.698   1.611   4.613
  100SOL     MW  400  10.738   1.548   4.568
  101SOL     OW  401  10.442   2.048   3.629
  101SOL    HW1  402  10.365   2.044   3.571
  101SOL    HW2  403  10.493   1.971   3.605
  101SOL     MW  404  10.439   2.038   3.619
  102SOL     OW  405  12.430   0.485   4.743
  102SOL    HW1  406  12.517   0.490   4.783
  102SOL    HW2  407  12.419   0.393   4.722
  102SOL     MW  408  12.439   0.475   4.745
  103SOL     OW  409  12.695   1.868   3.712
  103SOL    HW1  410  12.647   1.934   3.763
  103SOL    HW2  411  12.785   1.895   3.718
  103SOL     MW  412  12.700   1.879   3.719
  104SOL     OW  413  13.070   2.296   5.961
  104SOL    HW1  414  13.098   2.209   5.930
  104SOL    HW2  415  13.022   2.278   6.041
  104SOL     MW  416  13.068   2.283   5.967
  105SOL     OW  417  10.361   1.477   4.381
  105SOL    HW1  418  10.362   1.383   4.363
  105SOL    HW2  419  10.342   1.482   4.474
  105SOL     MW  420  10.359   1.466   4.390
  106SOL     OW  421  10.701   2.562   4.531
  106SOL    HW1  422  10.687   2.618   4.609
  106SOL    HW2  423  10.791   2.578   4.508
  106SOL     MW  424  10.710   2.571   4.538
  107SOL     OW  425  11.207   0.712   5.098
  107SOL    HW1  426  11.148   0.700   5.022
  107SOL    HW2  427  11.255   0.630   5.103
  107SOL     MW  428  11.205   0.701   5.089
  108SOL     OW  429  12.946   1.805   4.900
  108SOL    HW1  430  12.880   1.780   4.965
  108SOL    HW2  431  13.022   1.826   4.951
  108SOL     MW  432  12.947   1.804   4.914
  109SOL     OW  433  13.216   2.810   4.799
  109SOL    HW1  434  13.205   2.884   4.860
  109SOL    HW2  435  13.303   2.777   4.818
  109SOL     MW  436  13.225   2.815   4.809
  110SOL     OW  437  12.513   1.184   5.712
  110SOL    HW1  438  12.489   1.210   5.622
  110SOL    HW2  439  12.521   1.089   5.707
  110SOL     MW  440  12.511   1.176   5.700
  111SOL     OW  441  10.610   2.236   3.126
  111SOL    HW1  442  10.660   2.158   3.154
  111SOL    HW2  443  10.533   2.234   3.182
  111SOL     MW  444  10.607   2.226   3.136
  112SOL     OW  445  13.048   1.789   5.306
  112SOL    HW1  446  13.091   1.851   5.365
  112SOL    HW2  447  13.089   1.706   5.326
  112SOL     MW  448  13.058   1.786   5.315
  113SOL     OW  449  11.442   2.821   4.102
  113SOL    HW1  450  11.360   2.773   4.120
  113SOL    HW2  451  11.419   2.879   4.031
  113SOL     MW  452  11.429   2.822   4.096
  114SOL     OW  453  11.304   0.956   6.024
  114SOL    HW1  454  11.358   0.969   6.103
  114SOL    HW2  455  11.217   0.942   6.057
  114SOL     MW  456  11.300   0.956   6.038
  115SOL     OW  457  10.082   0.775   4.842
  115SOL    HW1  458  10.129   0.859   4.834
  115SOL    HW2  459  10.049   0.776   4.931
  115SOL     MW  460  10.084   0.785   4.852
  116SOL     OW  461  12.913   1.208   5.985
  116SOL    HW1  462  12.889   1.256   6.065
  116SOL    HW2  463  12.857   1.132   5.986
  116SOL     MW  464  12.903   1.205   5.995
  117SOL     OW  465  10.535   1.304   6.329
  117SOL    HW1  466  10.559   1.322   6.421
  117SOL    HW2  467  10.585   1.227   6.307
  117SOL     MW  468  10.544   1.297   6.338
  118SOL     OW  469  12.826   2.224   5.339
  118SOL    HW1  470  12.797   2.256   5.425
  118SOL    HW2  471  12.910   2.184   5.356
  118SOL     MW  472  12.833   2.223   5.351
  119SOL     OW  473  11.231   1.056   3.453
  119SOL    HW1  474  11.287   1.135   3.456
  119SOL    HW2  475  11.149   1.084   3.492
  119SOL     MW  476  11.228   1.069   3.458
  120SOL     OW  477  13.188   2.418   3.522
  120SOL    HW1  478  13.237   2.485   3.473
  120SOL    HW2  479  13.101   2.421   3.483
  120SOL     MW  480  13.183   2.427   3.511
  121SOL     OW  481  10.050   3.010   3.627
  121SOL    HW1  482  10.010   3.098   3.631
  121SOL    HW2  483  10.112   3.010   3.699
  121SOL     MW  484  10.053   3.021   3.636
  122SOL     OW  485  13.186   2.123   4.991
  122SOL    HW1  486  13.238   2.075   4.926
  122SOL    HW2  487  13.205   2.214   4.974
  122SOL     MW  488  13.194   2.128   4.981
  123SOL     OW  489  11.248   1.923   4.863
  123SOL    HW1  490  11.341   1.929   4.887
  123SOL    HW2  491  11.202   1.941   4.943
  123SOL     MW  492  11.254   1.926   4.875
  124SOL     OW  493  11.706   1.428   5.891
  124SOL    HW1  494  11.685   1.508   5.942
  124SOL    HW2  495  11.621   1.389   5.874
  124SOL     MW  496  11.693   1.433   5.895
  125SOL     OW  497  11.924   1.679   3.893
  125SOL    HW1  498  11.863   1.692   3.966
  125SOL    HW2  499  11.983   1.753   3.899
  125SOL     MW  500  11.924   1.689   3.903
  126SOL     OW  501  10.875   1.946   6.252
  126SOL    HW1  502  10.844   1.855   6.251
  126SOL    HW2  503  10.969   1.939   6.267
  126SOL     MW  504  10.882   1.934   6.254
  127SOL     OW  505  10.969   2.846   3.120
  127SOL    HW1  506  10.957   2.929   3.167
  127SOL    HW2  507  11.057   2.818   3.143
  127SOL     MW  508  10.978   2.852   3.128
  128SOL     OW  509  13.202   2.420   4.181
  128SOL    HW1  510  13.239   2.509   4.174
  128SOL    HW2  511  13.191   2.408   4.275
  128SOL     MW  512  13.205   2.430   4.192
  129SOL     OW  513  10.865   0.143   4.726
  129SOL    HW1  514  10.774   0.171   4.739
  129SOL    HW2  515  10.893   0.115   4.812
  129SOL     MW  516  10.857   0.143   4.738
  130SOL     OW  517  10.798   0.949   4.168
  130SOL    HW1  518  10.861   1.011   4.204
  130SOL    HW2  519  10.834   0.863   4.188
  130SOL     MW  520  10.810   0.946   4.175
  131SOL     OW  521  12.716   1.965   5.362
  131SOL    HW1  522  12.677   1.908   5.295
  131SOL    HW2  523  12.798   1.993   5.324
  131SOL     MW  524  12.721   1.962   5.349
  132SOL     OW  525  12.445   3.365   3.299
  132SOL    HW1  526  12.436   3.301   3.369
  132SOL    HW2  527  12.366   3.418   3.304
  132SOL     MW  528  12.435   3.364   3.308
  133SOL     OW  529  11.058   2.479   5.214
  133SOL    HW1  530  11.046   2.561   5.164
  133SOL    HW2  531  11.088   2.417   5.149
  133SOL     MW  532  11.060   2.482   5.200
  134SOL     OW  533  12.908   3.132   3.796
  134SOL    HW1  534  12.832   3.125   3.855
  134SOL    HW2  535  12.941   3.220   3.811
  134SOL     MW  536  12.903   3.142   3.805
  135SOL     OW  537  12.474   1.402   5.756
  135SOL    HW1  538  12.451   1.491   5.785
  135SOL    HW2  539  12.544   1.376   5.814
  135SOL     MW  540  12.479   1.410   5.766
  136SOL     OW  541  13.151   1.699   3.919
  136SOL    HW1  542  13.230   1.647   3.901
  136SOL    HW2  543  13.084   1.659   3.865
  136SOL     MW  544  13.153   1.687   3.910
  137SOL     OW  545  10.790   0.146   5.582
  137SOL    HW1  546  10.822   0.182   5.666
  137SOL    HW2  547  10.733   0.215   5.549
  137SOL     MW  548  10.787   0.159   5.588
  138SOL     OW  549  10.083   3.254   5.043
  138SOL    HW1  550  10.008   3.229   4.988
  138SOL    HW2  551  10.103   3.175   5.092
  138SOL     MW  552  10.076   3.241   5.042
  139SOL     OW  553  11.371   3.334   5.131
  139SOL    HW1  554  11.457   3.377   5.131
  139SOL    HW2  555  11.313   3.397   5.090
  139SOL     MW  556  11.374   3.347   5.126
  140SOL     OW  557  12.327   0.975   3.757
  140SOL    HW1  558  12.272   0.953   3.681
  140SOL    HW2  559  12.399   0.913   3.753
  140SOL     MW  560  12.329   0.965   3.747
  141SOL     OW  561  11.083   0.527   4.234
  141SOL    HW1  562  11.043   0.468   4.298
  141SOL    HW2  563  11.010   0.569   4.192
  141SOL     MW  564  11.070   0.525   4.237
  142SOL     OW  565  12.965   1.948   4.733
  142SOL    HW1  566  13.060   1.937   4.737
  142SOL    HW2  567  12.946   2.018   4.794
  142SOL     MW  568  12.974   1.955   4.741
  143SOL     OW  569  13.205   2.969   4.343
  143SOL    HW1  570  13.139   2.993   4.408
  143SOL    HW2  571  13.278   3.027   4.360
  143SOL     MW  572  13.206   2.979   4.353
  144SOL     OW  573  11.125   0.722   4.506
  144SOL    HW1  574  11.067   0.736   4.431
  144SOL    HW2  575  11.172   0.643   4.485
  144SOL     MW  576  11.124   0.715   4.495
  145SOL     OW  577  12.710   0.489   4.673
  145SOL    HW1  578  12.783   0.429   4.693
  145SOL    HW2  579  12.658   0.442   4.610
  145SOL     MW  580  12.713   0.476   4.668
  146SOL     OW  581  13.011   0.641   3.535
  146SOL    HW1  582  13.014   0.620   3.629
  146SOL    HW2  583  12.943   0.584   3.501
  146SOL     MW  584  13.003   0.632   3.543
  147SOL     OW  585  12.863   0.261   5.700
  147SOL    HW1  586  12.916   0.297   5.629
  147SOL    HW2  587  12.842   0.336   5.754
  147SOL     MW  588  12.867   0.274   5.698
  148SOL     OW  589  10.157   3.461   5.186
  148SOL    HW1  590  10.179   3.369   5.204
  148SOL    HW2  591  10.078   3.456   5.134
  148SOL     MW  592  10.150   3.449   5.182
  149SOL     OW  593  11.572   0.345   4.570
  149SOL    HW1  594  11.623   0.264   4.582
  149SOL    HW2  595  11.609   0.384   4.491
  149SOL     MW  596  11.583   0.340   4.562
  150SOL     OW  597  12.204   1.275   3.635
  150SOL    HW1  598  12.243   1.353   3.593
  150SOL    HW2  599  12.114   1.274   3.603
  150SOL     MW  600  12.198   1.284   3.626
  151SOL     OW  601  13.281   1.007   5.486
  151SOL    HW1  602  13.334   0.927   5.475
  151SOL    HW2  603  13.340   1.077   5.462
  151SOL     MW  604  13.294   1.005   5.482
  152SOL     OW  605  12.340   1.553   3.421
  152SOL    HW1  606  12.396   1.487   3.462
  152SOL    HW2  607  12.387   1.578   3.342
  152SOL     MW  608  12.352   1.547   3.416
  153SOL     OW  609  11.347   0.784   3.787
  153SOL    HW1  610  11.271   0.787   3.728
  153SOL    HW2  611  11.388   0.701   3.768
  153SOL     MW  612  11.342   0.775   3.778
  154SOL     OW  613  10.896   3.411   5.985
  154SOL    HW1  614  10.862   3.467   5.914
  154SOL    HW2  615  10.837   3.336   5.985
  154SOL     MW  616  10.884   3.409   5.976
  155SOL     OW  617  11.488   0.792   4.499
  155SOL    HW1  618  11.503   0.809   4.593
  155SOL    HW2  619  11.394   0.800   4.490
  155SOL     MW  620  11.478   0.795   4.510
  156SOL     OW  621  11.605   0.718   6.303
  156SOL    HW1  622  11.661   0.702   6.380
  156SOL    HW2  623  11.542   0.647   6.305
  156SOL     MW  624  11.604   0.708   6.313
  157SOL     OW  625  12.346   3.353   5.437
  157SOL    HW1  626  12.400   3.334   5.515
  157SOL    HW2  627  12.394   3.421   5.392
  157SOL     MW  628  12.358   3.359   5.441
  158SOL     OW  629  11.595   1.562   4.268
  158SOL    HW1  630  11.567   1.624   4.200
  158SOL    HW2  631  11.662   1.510   4.225
  158SOL     MW  632  11.599   1.563   4.255
  159SOL     OW  633  10.190   2.225   6.194
  159SOL    HW1  634  10.122   2.291   6.208
  159SOL    HW2  635  10.242   2.228   6.274
  159SOL     MW  636  10.188   2.234   6.205
  160SOL     OW  637  10.907   3.403   6.493
  160SOL    HW1  638  10.812   3.414   6.509
  160SOL    HW2  639  10.918   3.309   6.486
  160SOL     MW  640  10.896   3.393   6.494
  161SOL     OW  641  10.953   1.362   5.680
  161SOL    HW1  642  10.859   1.385   5.678
  161SOL    HW2  643  10.969   1.344   5.772
  161SOL     MW  644  10.943   1.363   5.691
  162SOL     OW  645  11.050   1.571   4.795
  162SOL    HW1  646  11.108   1.498   4.772
  162SOL    HW2  647  11.102   1.624   4.854
  162SOL     MW  648  11.063   1.568   4.799
  163SOL     OW  649  10.271   0.000   4.845
  163SOL    HW1  650  10.207   0.070   4.828
  163SOL    HW2  651  10.327  -0.000   4.769
  163SOL     MW  652  10.270   0.009   4.834
  164SOL     OW  653  11.502   0.582   4.562
  164SOL    HW1  654  11.571   0.563   4.627
  164SOL    HW2  655  11.426   0.604   4.615
  164SOL     MW  656  11.501   0.582   4.576
  165SOL     OW  657  12.792   0.575   6.508
  165SOL    HW1  658  12.743   0.658   6.501
  165SOL    HW2  659  12.775   0.531   6.426
  165SOL     MW  660  12.784   0.580   6.498
  166SOL     OW  661  13.340   0.534   3.823
  166SOL    HW1  662  13.340   0.624   3.857
  166SOL    HW2  663  13.277   0.536   3.751
  166SOL     MW  664  13.332   0.545   3.819
  167SOL     OW  665  10.192   0.086   3.807
  167SOL    HW1  666  10.288   0.097   3.802
  167SOL    HW2  667  10.179   0.016   3.869
  167SOL     MW  668  10.202   0.079   3.814
  168SOL     OW  669  12.181   3.103   5.818
  168SOL    HW1  670  12.127   3.041   5.869
  168SOL    HW2  671  12.262   3.057   5.803
  168SOL     MW  672  12.184   3.090   5.822
  169SOL     OW  673  10.704   3.414   5.125
  169SOL    HW1  674  10.771   3.461   5.075
  169SOL    HW2  675  10.623   3.460   5.104
  169SOL     MW  676  10.703   3.425   5.116
  170SOL     OW  677  13.124   3.423   6.138
  170SOL    HW1  678  13.119   3.461   6.049
  170SOL    HW2  679  13.050   3.460   6.184
  170SOL     MW  680  13.115   3.432   6.133
  171SOL     OW  681  12.791   0.778   3.349
  171SOL    HW1  682  12.787   0.808   3.441
  171SOL    HW2  683  12.815   0.687   3.355
  171SOL     MW  684  12.793   0.771   3.361
  172SOL     OW  685  12.776   2.835   4.129
  172SOL    HW1  686  12.746   2.895   4.198
  172SOL    HW2  687  12.828   2.889   4.072
  172SOL     MW  688  12.778   2.849   4.130
  173SOL     OW  689  11.523   0.073   4.628
  173SOL    HW1  690  11.451   0.091   4.566
  173SOL    HW2  691  11.493   0.109   4.710
  173SOL     MW  692  11.511   0.080   4.630
  174SOL     OW  693  13.340   2.253   4.704
  174SOL    HW1  694  13.274   2.268   4.772
  174SOL    HW2  695  13.294   2.268   4.622
  174SOL     MW  696  13.327   2.257   4.702
  175SOL     OW  697  12.306   0.090   4.240
  175SOL    HW1  698  12.357   0.051   4.311
  175SOL    HW2  699  12.219   0.054   4.252
  175SOL     MW  700  12.302   0.081   4.250
  176SOL     OW  701  10.947   2.983   4.073
  176SOL    HW1  702  10.961   2.994   3.978
  176SOL    HW2  703  10.868   2.930   4.079
  176SOL     MW  704  10.939   2.978   4.062
  177SOL     OW  705  10.840   2.669   3.257
  177SOL    HW1  706  10.875   2.645   3.171
  177SOL    HW2  707  10.907   2.726   3.294
  177SOL     MW  708  10.852   2.673   3.251
  178SOL     OW  709  11.969   0.268   5.674
  178SOL    HW1  710  11.966   0.176   5.702
  178SOL    HW2  711  11.899   0.274   5.610
  178SOL     MW  712  11.960   0.258   5.670
  179SOL     OW  713  12.950   1.019   5.566
  179SOL    HW1  714  13.031   0.978   5.536
  179SOL    HW2  715  12.888   1.003   5.496
  179SOL     MW  716  12.952   1.012   5.554
  180SOL     OW  717  10.852   1.400   3.193
  180SOL    HW1  718  10.904   1.359   3.262
  180SOL    HW2  719  10.795   1.331   3.162
  180SOL     MW  720  10.852   1.387   3.198
  181SOL     OW  721  11.842   0.378   6.243
  181SOL    HW1  722  11.783   0.410   6.174
  181SOL    HW2  723  11.846   0.450   6.305
  181SOL     MW  724  11.835   0.391   6.242
  182SOL     OW  725  10.919   2.642   5.389
  182SOL    HW1  726  10.932   2.723   5.339
  182SOL    HW2  727  10.895   2.577   5.324
  182SOL     MW  728  10.918   2.644   5.376
  183SOL     OW  729  12.673   1.293   4.851
  183SOL    HW1  730  12.769   1.295   4.846
  183SOL    HW2  731  12.654   1.217   4.905
  183SOL     MW  732  12.682   1.284   4.857
  184SOL     OW  733  12.864   2.964   6.410
  184SOL    HW1  734  12.939   2.909   6.385
  184SOL    HW2  735  12.868   3.037   6.350
  184SOL     MW  736  12.874   2.966   6.400
  185SOL     OW  737  11.189   0.150   4.418
  185SOL    HW1  738  11.275   0.169   4.458
  185SOL    HW2  739  11.201   0.066   4.376
  185SOL     MW  740  11.201   0.142   4.418
  186SOL     OW  741  12.122   1.041   4.583
  186SOL    HW1  742  12.209   1.068   4.553
  186SOL    HW2  743  12.111   1.086   4.666
  186SOL     MW  744  12.132   1.050   4.589
  187SOL     OW  745  11.989   2.018   6.013
  187SOL    HW1  746  11.922   2.015   5.944
  187SOL    HW2  747  12.002   1.927   6.037
  187SOL     MW  748  11.982   2.007   6.008
  188SOL     OW  749  11.029   2.340   3.816
  188SOL    HW1  750  11.099   2.406   3.821
  188SOL    HW2  751  11.057   2.272   3.876
  188SOL     MW  752  11.041   2.340   3.824
  189SOL     OW  753  10.616   0.921   4.755
  189SOL    HW1  754  10.568   1.003   4.742
  189SOL    HW2  755  10.696   0.933   4.706
  189SOL     MW  756  10.620   0.932   4.747
  190SOL     OW  757  12.102   2.203   6.372
  190SOL    HW1  758  12.028   2.232   6.426
  190SOL    HW2  759  12.160   2.278   6.369
  190SOL     MW  760  12.100   2.216   6.378
  191SOL     OW  761  11.484   1.329   3.346
  191SOL    HW1  762  11.415   1.263   3.332
  191SOL    HW2  763  11.510   1.316   3.436
  191SOL     MW  764  11.479   1.319   3.355
  192SOL     OW  765  11.825   2.277   3.142
  192SOL    HW1  766  11.760   2.254   3.075
  192SOL    HW2  767  11.784   2.348   3.191
  192SOL     MW  768  11.812   2.283   3.140
  193SOL     OW  769  11.367   0.159   3.336
  193SOL    HW1  770  11.449   0.154   3.285
  193SOL    HW2  771  11.338   0.249   3.325
  193SOL     MW  772  11.373   0.169   3.328
  194SOL     OW  773  11.450   3.047   4.588
  194SOL    HW1  774  11.486   3.105   4.520
  194SOL    HW2  775  11.356   3.059   4.582
  194SOL     MW  776  11.444   3.055   4.579
  195SOL     OW  777  10.610   1.833   5.628
  195SOL    HW1  778  10.558   1.828   5.546
  195SOL    HW2  779  10.646   1.920   5.627
  195SOL     MW  780  10.608   1.842   5.618
  196SOL     OW  781  11.041   0.791   4.178
  196SOL    HW1  782  11.057   0.876   4.135
  196SOL    HW2  783  11.123   0.772   4.221
  196SOL     MW  784  11.053   0.799   4.178
  197SOL     OW  785  12.142   1.061   5.073
  197SOL    HW1  786  12.168   1.151   5.092
  197SOL    HW2  787  12.133   1.059   4.978
  197SOL     MW  788  12.145   1.071   5.064
  198SOL     OW  789  12.540   2.699   3.481
  198SOL    HW1  790  12.498   2.728   3.399
  198SOL    HW2  791  12.484   2.628   3.511
  198SOL     MW  792  12.528   2.694   3.474
  199SOL     OW  793  11.388   0.420   4.431
  199SOL    HW1  794  11.372   0.510   4.399
  199SOL    HW2  795  11.302   0.388   4.454
  199SOL     MW  796  11.376   0.427   4.430
  200SOL     OW  797  11.394   3.340   5.995
  200SOL    HW1  798  11.416   3.253   6.030
  200SOL    HW2  799  11.326   3.372   6.054
  200SOL     MW  800  11.389   3.333   6.007
  201SOL     OW  801  12.905   2.058   3.910
  201SOL    HW1  802  12.824   2.072   3.860
  201SOL    HW2  803  12.930   1.969   3.891
  201SOL     MW  804  12.898   2.049   3.901
  202SOL     OW  805  10.223   0.241   3.971
  202SOL    HW1  806  10.268   0.323   3.951
  202SOL    HW2  807  10.134   0.266   3.988
  202SOL     MW  808  10.218   0.254   3.971
  203SOL     OW  809  10.609   2.017   3.339
  203SOL    HW1  810  10.526   2.056   3.369
  203SOL    HW2  811  10.653   1.990   3.418
  203SOL     MW  812  10.604   2.018   3.352
  204SOL     OW  813  11.544   1.720   6.093
  204SOL    HW1  814  11.620   1.694   6.039
  204SOL    HW2  815  11.536   1.813   6.079
  204SOL     MW  816  11.552   1.728   6.085
  205SOL     OW  817  11.775   0.983   3.248
  205SOL    HW1  818  11.725   0.956   3.326
  205SOL    HW2  819  11.859   0.941   3.260
  205SOL     MW  820  11.779   0.975   3.259
  206SOL     OW  821  10.341   2.538   3.396
  206SOL    HW1  822  10.321   2.517   3.487
  206SOL    HW2  823  10.347   2.453   3.353
  206SOL     MW  824  10.339   2.525   3.402
  207SOL     OW  825  12.684   2.283   4.679
  207SOL    HW1  826  12.613   2.303   4.617
  207SOL    HW2  827  12.708   2.194   4.660
  207SOL     MW  828  12.678   2.275   4.669
  208SOL     OW  829  11.464   2.003   5.353
  208SOL    HW1  830  11.417   2.006   5.437
  208SOL    HW2  831  11.395   1.990   5.289
  208SOL     MW  832  11.450   2.002   5.356
  209SOL     OW  833  12.664   2.711   3.984
  209SOL    HW1  834  12.734   2.700   3.919
  209SOL    HW2  835  12.631   2.799   3.967
  209SOL     MW  836  12.668   2.720   3.974
  210SOL     OW  837  10.818   1.451   5.386
  210SOL    HW1  838  10.809   1.547   5.377
  210SOL    HW2  839  10.776   1.432   5.469
  210SOL     MW  840  10.812   1.461   5.395
  211SOL     OW  841  12.868   1.386   5.460
  211SOL    HW1  842  12.935   1.413   5.396
  211SOL    HW2  843  12.802   1.342   5.407
  211SOL     MW  844  12.868   1.384   5.446
  212SOL     OW  845  10.510   1.034   5.519
  212SOL    HW1  846  10.444   0.964   5.526
  212SOL    HW2  847  10.539   1.030   5.429
  212SOL     MW  848  10.505   1.025   5.509
  213SOL     OW  849  12.983   1.984   3.678
  213SOL    HW1  850  12.978   1.923   3.604
  213SOL    HW2  851  13.064   2.030   3.664
  213SOL     MW  852  12.992   1.982   3.667
  214SOL     OW  853  12.000   3.179   5.556
  214SOL    HW1  854  11.950   3.152   5.478
  214SOL    HW2  855  12.015   3.098   5.603
  214SOL     MW  856  11.995   3.166   5.552
  215SOL     OW  857  12.430   2.710   3.190
  215SOL    HW1  858  12.348   2.702   3.240
  215SOL    HW2  859  12.408   2.771   3.120
  215SOL     MW  860  12.417   2.717   3.188
  216SOL     OW  861  11.928   0.338   4.918
  216SOL    HW1  862  11.894   0.249   4.902
  216SOL    HW2  863  11.977   0.330   4.998
  216SOL     MW  864  11.930   0.326   4.925
  217SOL     OW  865  11.340   0.639   4.825
  217SOL    HW1  866  11.330   0.732   4.851
  217SOL    HW2  867  11.283   0.592   4.885
  217SOL     MW  868  11.332   0.645   4.835
  218SOL     OW  869  11.843   0.109   5.881
  218SOL    HW1  870  11.748   0.120   5.885
  218SOL    HW2  871  11.855   0.023   5.842
  218SOL     MW  872  11.833   0.100   5.877
  219SOL     OW  873  12.060   2.193   5.107
  219SOL    HW1  874  12.112   2.261   5.062
  219SOL    HW2  875  12.060   2.120   5.047
  219SOL     MW  876  12.066   2.193   5.094
  220SOL     OW  877  12.537   0.974   3.505
  220SOL    HW1  878  12.630   0.950   3.501
  220SOL    HW2  879  12.491   0.892   3.499
  220SOL     MW  880  12.543   0.961   3.504
  221SOL     OW  881  10.260   0.758   3.969
  221SOL    HW1  882  10.306   0.675   3.950
  221SOL    HW2  883  10.179   0.731   4.011
  221SOL     MW  884  10.256   0.744   3.972
  222SOL     OW  885  10.412   0.279   4.781
  222SOL    HW1  886  10.383   0.202   4.832
  222SOL    HW2  887  10.468   0.242   4.714
  222SOL     MW  888  10.415   0.265   4.780
  223SOL     OW  889  11.328   2.053   5.841
  223SOL    HW1  890  11.313   2.089   5.753
  223SOL    HW2  891  11.397   2.107   5.877
  223SOL     MW  892  11.335   2.064   5.834
  224SOL     OW  893  10.163   0.509   4.005
  224SOL    HW1  894  10.097   0.519   4.074
  224SOL    HW2  895  10.118   0.533   3.925
  224SOL     MW  896  10.150   0.513   4.004
  225SOL     OW  897  12.023   2.245   3.232
  225SOL    HW1  898  12.058   2.302   3.163
  225SOL    HW2  899  12.098   2.200   3.267
  225SOL     MW  900  12.036   2.247   3.228
  226SOL     OW  901  11.688   2.306   6.186
  226SOL    HW1  902  11.643   2.364   6.123
  226SOL    HW2  903  11.658   2.219   6.164
  226SOL     MW  904  11.679   2.303   6.176
  227SOL     OW  905  13.168   2.507   4.784
  227SOL    HW1  906  13.086   2.554   4.802
  227SOL    HW2  907  13.233   2.552   4.837
  227SOL     MW  908  13.166   2.518   4.792
  228SOL     OW  909  12.877   3.116   4.373
  228SOL    HW1  910  12.817   3.066   4.316
  228SOL    HW2  911  12.962   3.103   4.335
  228SOL     MW  912  12.880   3.109   4.361
  229SOL     OW  913  12.906   0.451   3.924
  229SOL    HW1  914  12.895   0.523   3.862
  229SOL    HW2  915  12.833   0.392   3.906
  229SOL     MW  916  12.896   0.452   3.914
  230SOL     OW  917  12.070   0.944   3.930
  230SOL    HW1  918  12.120   0.990   3.862
  230SOL    HW2  919  11.980   0.969   3.915
  230SOL     MW  920  12.066   0.952   3.920
  231SOL     OW  921  12.306   1.353   5.936
  231SOL    HW1  922  12.245   1.427   5.942
  231SOL    HW2  923  12.313   1.321   6.024
  231SOL     MW  924  12.300   1.358   5.947
  232SOL     OW  925  10.780   2.888   6.295
  232SOL    HW1  926  10.780   2.927   6.383
  232SOL    HW2  927  10.854   2.927   6.252
  232SOL     MW  928  10.789   2.897   6.301
  233SOL     OW  929  12.445   3.045   3.393
  233SOL    HW1  930  12.499   3.010   3.322
  233SOL    HW2  931  12.509   3.073   3.458
  233SOL     MW  932  12.459   3.044   3.392
  234SOL     OW  933  11.693   0.831   6.067
  234SOL    HW1  934  11.741   0.783   6.135
  234SOL    HW2  935  11.627   0.879   6.115
  234SOL     MW  936  11.691   0.831   6.081
  235SOL     OW  937  12.408   0.493   3.993
  235SOL    HW1  938  12.453   0.483   4.078
  235SOL    HW2  939  12.337   0.431   3.997
  235SOL     MW  940  12.405   0.485   4.004
  236SOL     OW  941  10.321   1.466   6.510
  236SOL    HW1  942  10.226   1.459   6.497
  236SOL    HW2  943  10.358   1.408   6.445
  236SOL     MW  944  10.314   1.458   6.501
  237SOL     OW  945  11.891   3.320   4.122
  237SOL    HW1  946  11.865   3.358   4.207
  237SOL    HW2  947  11.944   3.387   4.082
  237SOL     MW  948  11.894   3.332   4.128
  238SOL     OW  949  11.123   0.131   5.998
  238SOL    HW1  950  11.198   0.112   6.056
  238SOL    HW2  951  11.059   0.064   6.020
  238SOL     MW  952  11.124   0.121   6.008
  239SOL     OW  953  13.225   1.730   3.480
  239SOL    HW1  954  13.222   1.670   3.405
  239SOL    HW2  955  13.300   1.786   3.462
  239SOL     MW  956  13.233   1.730   3.469
  240SOL     OW  957  11.003   2.164   4.347
  240SOL    HW1  958  10.989   2.255   4.376
  240SOL    HW2  959  11.066   2.172   4.277
  240SOL     MW  960  11.009   2.176   4.342
  241SOL     OW  961  13.298   3.366   4.072
  241SOL    HW1  962  13.217   3.401   4.034
  241SOL    HW2  963  13.323   3.295   4.014
  241SOL     MW  964  13.291   3.362   4.060
  242SOL     OW  965  11.229   1.593   5.743
  242SOL    HW1  966  11.234   1.624   5.652
  242SOL    HW2  967  11.236   1.498   5.735
  242SOL     MW  968  11.231   1.586   5.731
  243SOL     OW  969  12.034   2.587   4.374
  243SOL    HW1  970  12.103   2.600   4.308
  243SOL    HW2  971  12.033   2.668   4.423
  243SOL     MW  972  12.042   2.598   4.372
  244SOL     OW  973  10.340   1.024   4.367
  244SOL    HW1  974  10.418   1.071   4.399
  244SOL    HW2  975  10.338   0.944   4.418
  244SOL     MW  976  10.349   1.020   4.377
  245SOL     OW  977  13.263   1.346   3.150
  245SOL    HW1  978  13.342   1.352   3.204
  245SOL    HW2  979  13.194   1.322   3.211
  245SOL     MW  980  13.264   1.344   3.164
  246SOL     OW  981  10.528   1.467   3.191
  246SOL    HW1  982  10.462   1.442   3.125
  246SOL    HW2  983  10.611   1.459   3.146
  246SOL     MW  984  10.529   1.463   3.178
  247SOL     OW  985  11.395   1.266   5.523
  247SOL    HW1  986  11.321   1.217   5.484
  247SOL    HW2  987  11.472   1.220   5.492
  247SOL     MW  988  11.395   1.255   5.515
  248SOL     OW  989  10.187   3.207   5.472
  248SOL    HW1  990  10.269   3.159   5.455
  248SOL    HW2  991  10.177   3.263   5.396
  248SOL     MW  992  10.196   3.207   5.461
  249SOL     OW  993  11.402   2.837   5.994
  249SOL    HW1  994  11.408   2.817   5.899
  249SOL    HW2  995  11.433   2.926   6.000
  249SOL     MW  996  11.406   2.845   5.983
  250SOL     OW  997  10.349   2.164   4.132
  250SOL    HW1  998  10.403   2.243   4.139
  250SOL    HW2  999  10.263   2.197   4.109
  250SOL     MW 1000  10.345   2.177   4.130
  251SOL     OW 1001  10.939   1.507   3.750
  251SOL    HW1 1002  10.951   1.569   3.677
  251SOL    HW2 1003  10.887   1.437   3.712
  251SOL     MW 1004  10.934   1.506   3.736
  252SOL     OW 1005  12.501   1.358   3.632
  252SOL    HW1 1006  12.522   1.268   3.659
  252SOL    HW2 1007  12.567   1.378   3.567
  252SOL     MW 1008  12.511   1.349   3.628
  253SOL     OW 1009  10.269   2.063   5.939
  253SOL    HW1 1010  10.236   1.974   5.924
  253SOL    HW2 1011  10.225   2.091   6.018
  253SOL     MW 1012  10.260   2.056   5.947
  254SOL     OW 1013  10.196   2.339   6.006
  254SOL    HW1 1014  10.141   2.283   5.951
  254SOL    HW2 1015  10.283   2.330   5.971
  254SOL     MW 1016  10.200   2.331   5.995
  255SOL     OW 1017  13.292   1.490   5.006
  255SOL    HW1 1018  13.340   1.415   4.970
  255SOL    HW2 1019  13.341   1.514   5.084
  255SOL     MW 1020  13.304   1.484   5.011
  256SOL     OW 1021  12.385   3.126   3.116
  256SOL    HW1 1022  12.430   3.044   3.092
  256SOL    HW2 1023  12.446   3.194   3.092
  256SOL     MW 1024  12.398   3.124   3.111
  257SOL     OW 1025  10.588   3.209   4.901
  257SOL    HW1 1026  10.655   3.215   4.832
  257SOL    HW2 1027  10.561   3.299   4.914
  257SOL     MW 1028  10.593   3.220   4.894
  258SOL     OW 1029  11.111   2.414   5.701
  258SOL    HW1 1030  11.144   2.336   5.656
  258SOL    HW2 1031  11.178   2.435   5.764
  258SOL     MW 1032  11.123   2.407   5.703
  259SOL     OW 1033  10.112   2.091   4.742
  259SOL    HW1 1034  10.182   2.136   4.692
  259SOL    HW2 1035  10.032   2.128   4.707
  259SOL     MW 1036  10.111   2.101   4.732
  260SOL     OW 1037  10.792   2.447   5.006
  260SOL    HW1 1038  10.793   2.377   4.940
  260SOL    HW2 1039  10.870   2.498   4.988
  260SOL     MW 1040  10.801   2.444   4.996
  261SOL     OW 1041  12.161   1.413   6.392
  261SOL    HW1 1042  12.210   1.361   6.327
  261SOL    HW2 1043  12.185   1.503   6.373
  261SOL     MW 1044  12.170   1.417   6.382
  262SOL     OW 1045  12.203   3.320   5.203
  262SOL    HW1 1046  12.162   3.330   5.289
  262SOL    HW2 1047  12.277   3.380   5.205
  262SOL     MW 1048  12.207   3.329   5.214
  263SOL     OW 1049  11.546   2.047   3.472
  263SOL    HW1 1050  11.619   2.038   3.534
  263SOL    HW2 1051  11.528   2.140   3.471
  263SOL     MW 1052  11.553   2.057   3.480
  264SOL     OW 1053  10.142   0.426   5.711
  264SOL    HW1 1054  10.097   0.505   5.678
  264SOL    HW2 1055  10.117   0.358   5.650
  264SOL     MW 1056  10.133   0.428   5.700
  265SOL     OW 1057  10.765   0.521   3.394
  265SOL    HW1 1058  10.804   0.586   3.335
  265SOL    HW2 1059  10.783   0.554   3.481
  265SOL     MW 1060  10.772   0.533   3.398
  266SOL     OW 1061  12.248   1.686   5.407
  266SOL    HW1 1062  12.241   1.667   5.313
  266SOL    HW2 1063  12.327   1.640   5.434
  266SOL     MW 1064  12.257   1.678   5.399
  267SOL     OW 1065  10.275   0.150   3.186
  267SOL    HW1 1066  10.182   0.145   3.162
  267SOL    HW2 1067  10.296   0.243   3.181
  267SOL     MW 1068  10.266   0.160   3.182
  268SOL     OW 1069  12.187   1.039   5.784
  268SOL    HW1 1070  12.207   0.957   5.831
  268SOL    HW2 1071  12.248   1.041   5.712
  268SOL     MW 1072  12.197   1.030   5.781
  269SOL     OW 1073  12.891   0.824   3.824
  269SOL    HW1 1074  12.941   0.815   3.907
  269SOL    HW2 1075  12.856   0.738   3.809
  269SOL     MW 1076  12.893   0.813   3.832
  270SOL     OW 1077  10.458   2.991   5.403
  270SOL    HW1 1078  10.494   2.905   5.378
  270SOL    HW2 1079  10.378   2.999   5.353
  270SOL     MW 1080  10.453   2.981   5.394
  271SOL     OW 1081  13.197   2.030   4.364
  271SOL    HW1 1082  13.116   2.045   4.315
  271SOL    HW2 1083  13.259   2.092   4.326
  271SOL     MW 1084  13.195   2.040   4.354
  272SOL     OW 1085  11.454   0.562   3.384
  272SOL    HW1 1086  11.538   0.531   3.420
  272SOL    HW2 1087  11.478   0.608   3.304
  272SOL     MW 1088  11.467   0.563   3.379
  273SOL     OW 1089  12.056   0.090   5.463
  273SOL    HW1 1090  11.999   0.046   5.527
  273SOL    HW2 1091  12.016   0.176   5.451
  273SOL     MW 1092  12.044   0.095   5.469
  274SOL     OW 1093  12.154   2.953   3.332
  274SOL    HW1 1094  12.164   2.872   3.279
  274SOL    HW2 1095  12.098   2.926   3.404
  274SOL     MW 1096  12.149   2.940   3.334
  275SOL     OW 1097  12.041   0.943   4.403
  275SOL    HW1 1098  12.031   0.989   4.319
  275SOL    HW2 1099  11.983   0.868   4.396
  275SOL     MW 1100  12.033   0.940   4.392
  276SOL     OW 1101  11.772   2.487   3.773
  276SOL    HW1 1102  11.783   2.465   3.680
  276SOL    HW2 1103  11.858   2.470   3.811
  276SOL     MW 1104  11.783   2.482   3.766
  277SOL     OW 1105  10.564   2.627   3.346
  277SOL    HW1 1106  10.554   2.583   3.261
  277SOL    HW2 1107  10.626   2.697   3.328
  277SOL     MW 1108  10.570   2.630   3.334
  278SOL     OW 1109  11.577   1.406   5.657
  278SOL    HW1 1110  11.667   1.380   5.632
  278SOL    HW2 1111  11.536   1.324   5.681
  278SOL     MW 1112  11.583   1.393   5.657
  279SOL     OW 1113  10.438   0.985   6.376
  279SOL    HW1 1114  10.472   1.069   6.410
  279SOL    HW2 1115  10.372   1.012   6.312
  279SOL     MW 1116  10.434   0.999   6.372
  280SOL     OW 1117  12.593   1.891   3.495
  280SOL    HW1 1118  12.559   1.818   3.547
  280SOL    HW2 1119  12.519   1.949   3.485
  280SOL     MW 1120  12.580   1.889   3.500
  281SOL     OW 1121  11.176   0.782   6.489
  281SOL    HW1 1122  11.158   0.874   6.510
  281SOL    HW2 1123  11.096   0.737   6.511
  281SOL     MW 1124  11.165   0.788   6.495
  282SOL     OW 1125  11.933   0.855   5.945
  282SOL    HW1 1126  12.024   0.883   5.928
  282SOL    HW2 1127  11.927   0.853   6.040
  282SOL     MW 1128  11.943   0.859   5.954
  283SOL     OW 1129  11.758   1.015   6.317
  283SOL    HW1 1130  11.696   1.083   6.289
  283SOL    HW2 1131  11.813   1.001   6.241
  283SOL     MW 1132  11.757   1.022   6.304
  284SOL     OW 1133  11.166   1.874   5.223
  284SOL    HW1 1134  11.111   1.796   5.212
  284SOL    HW2 1135  11.127   1.938   5.166
  284SOL     MW 1136  11.154   1.872   5.215
  285SOL     OW 1137  13.205   2.193   3.532
  285SOL    HW1 1138  13.240   2.159   3.615
  285SOL    HW2 1139  13.114   2.212   3.551
  285SOL     MW 1140  13.199   2.191   3.544
  286SOL     OW 1141  10.646   2.936   3.718
  286SOL    HW1 1142  10.695   2.854   3.732
  286SOL    HW2 1143  10.705   3.004   3.747
  286SOL     MW 1144  10.659   2.934   3.723
  287SOL     OW 1145  12.661   0.294   5.972
  287SOL    HW1 1146  12.640   0.290   6.065
  287SOL    HW2 1147  12.746   0.252   5.965
  287SOL     MW 1148  12.668   0.289   5.982
  288SOL     OW 1149  12.881   0.556   5.612
  288SOL    HW1 1150  12.938   0.605   5.552
  288SOL    HW2 1151  12.795   0.593   5.598
  288SOL     MW 1152  12.878   0.566   5.603
  289SOL     OW 1153  10.624   2.313   4.102
  289SOL    HW1 1154  10.691   2.314   4.033
  289SOL    HW2 1155  10.580   2.396   4.093
  289SOL     MW 1156  10.627   2.323   4.092
  290SOL     OW 1157  12.727   1.336   5.130
  290SOL    HW1 1158  12.659   1.269   5.120
  290SOL    HW2 1159  12.796   1.292   5.179
  290SOL     MW 1160  12.727   1.322   5.135
  291SOL     OW 1161  11.456   1.165   5.907
  291SOL    HW1 1162  11.457   1.130   5.817
  291SOL    HW2 1163  11.367   1.148   5.937
  291SOL     MW 1164  11.445   1.159   5.899
  292SOL     OW 1165  13.296   3.119   6.327
  292SOL    HW1 1166  13.308   3.181   6.400
  292SOL    HW2 1167  13.240   3.052   6.363
  292SOL     MW 1168  13.291   3.119   6.340
  293SOL     OW 1169  11.948   1.101   3.418
  293SOL    HW1 1170  11.881   1.042   3.454
  293SOL    HW2 1171  11.956   1.170   3.483
  293SOL     MW 1172  11.941   1.102   3.430
  294SOL     OW 1173  12.029   0.644   5.880
  294SOL    HW1 1174  12.038   0.551   5.904
  294SOL    HW2 1175  12.078   0.652   5.799
  294SOL     MW 1176  12.036   0.633   5.874
  295SOL     OW 1177  11.517   1.700   5.618
  295SOL    HW1 1178  11.603   1.742   5.626
  295SOL    HW2 1179  11.528   1.640   5.544
  295SOL     MW 1180  11.529   1.698   5.610
  296SOL     OW 1181  10.698   2.112   3.661
  296SOL    HW1 1182  10.760   2.174   3.701
  296SOL    HW2 1183  10.632   2.098   3.727
  296SOL     MW 1184  10.698   2.118   3.674
  297SOL     OW 1185  12.931   2.198   6.237
  297SOL    HW1 1186  12.857   2.194   6.298
  297SOL    HW2 1187  12.973   2.281   6.257
  297SOL     MW 1188  12.927   2.208   6.247
  298SOL     OW 1189  11.602   1.253   6.046
  298SOL    HW1 1190  11.613   1.182   6.110
  298SOL    HW2 1191  11.528   1.303   6.077
  298SOL     MW 1192  11.595   1.250   6.057
  299SOL     OW 1193  10.136   2.093   3.857
  299SOL    HW1 1194  10.139   2.077   3.762
  299SOL    HW2 1195  10.164   2.011   3.896
  299SOL     MW 1196  10.140   2.081   3.850
  300SOL     OW 1197  10.344   2.291   4.429
  300SOL    HW1 1198  10.277   2.228   4.402
  300SOL    HW2 1199  10.391   2.311   4.349
  300SOL     MW 1200  10.342   2.286   4.416
  301SOL     OW 1201  13.303   2.561   3.135
  301SOL    HW1 1202  13.340   2.506   3.065
  301SOL    HW2 1203  13.262   2.633   3.089
  301SOL     MW 1204  13.303   2.563   3.121
  302SOL     OW 1205  11.949   3.249   5.058
  302SOL    HW1 1206  11.867   3.262   5.107
  302SOL    HW2 1207  12.010   3.310   5.098
  302SOL     MW 1208  11.946   3.258   5.069
  303SOL     OW 1209  11.903   1.142   5.682
  303SOL    HW1 1210  11.955   1.078   5.731
  303SOL    HW2 1211  11.850   1.185   5.748
  303SOL     MW 1212  11.903   1.139   5.696
  304SOL     OW 1213  12.563   2.089   5.239
  304SOL    HW1 1214  12.648   2.132   5.229
  304SOL    HW2 1215  12.516   2.144   5.300
  304SOL     MW 1216  12.568   2.101   5.245
  305SOL     OW 1217  11.793   2.754   4.678
  305SOL    HW1 1218  11.776   2.816   4.606
  305SOL    HW2 1219  11.749   2.675   4.652
  305SOL     MW 1220  11.786   2.753   4.666
  306SOL     OW 1221  10.550   0.415   4.909
  306SOL    HW1 1222  10.463   0.409   4.951
  306SOL    HW2 1223  10.568   0.508   4.907
  306SOL     MW 1224  10.541   0.425   4.914
  307SOL     OW 1225  12.710   0.748   6.214
  307SOL    HW1 1226  12.680   0.672   6.265
  307SOL    HW2 1227  12.726   0.714   6.128
  307SOL     MW 1228  12.708   0.735   6.210
  308SOL     OW 1229  12.221   1.311   3.316
  308SOL    HW1 1230  12.181   1.370   3.380
  308SOL    HW2 1231  12.314   1.314   3.336
  308SOL     MW 1232  12.227   1.319   3.326
  309SOL     OW 1233  11.307   2.196   5.458
  309SOL    HW1 1234  11.300   2.177   5.552
  309SOL    HW2 1235  11.316   2.290   5.453
  309SOL     MW 1236  11.307   2.204   5.469
  310SOL     OW 1237  10.519   2.836   5.868
  310SOL    HW1 1238  10.535   2.805   5.958
  310SOL    HW2 1239  10.459   2.908   5.878
  310SOL     MW 1240  10.514   2.841   5.881
  311SOL     OW 1241  11.844   1.316   4.181
  311SOL    HW1 1242  11.768   1.315   4.240
  311SOL    HW2 1243  11.835   1.237   4.130
  311SOL     MW 1244  11.834   1.307   4.182
  312SOL     OW 1245  10.707   0.512   5.515
  312SOL    HW1 1246  10.675   0.434   5.561
  312SOL    HW2 1247  10.646   0.581   5.540
  312SOL     MW 1248  10.696   0.511   5.524
  313SOL     OW 1249  10.221   2.494   5.451
  313SOL    HW1 1250  10.167   2.415   5.464
  313SOL    HW2 1251  10.308   2.467   5.476
  313SOL     MW 1252  10.224   2.481   5.455
  314SOL     OW 1253  13.056   1.209   3.956
  314SOL    HW1 1254  13.132   1.182   3.905
  314SOL    HW2 1255  12.987   1.150   3.930
  314SOL     MW 1256  13.057   1.199   3.947
  315SOL     OW 1257  10.367   2.221   6.511
  315SOL    HW1 1258  10.280   2.254   6.490
  315SOL    HW2 1259  10.426   2.291   6.487
  315SOL     MW 1260  10.364   2.233   6.506
  316SOL     OW 1261  11.557   2.162   4.075
  316SOL    HW1 1262  11.501   2.236   4.050
  316SOL    HW2 1263  11.640   2.180   4.032
  316SOL     MW 1264  11.560   2.174   4.067
  317SOL     OW 1265  10.715   2.664   6.108
  317SOL    HW1 1266  10.680   2.620   6.030
  317SOL    HW2 1267  10.794   2.615   6.129
  317SOL     MW 1268  10.720   2.653   6.101
  318SOL     OW 1269  12.316   0.464   3.567
  318SOL    HW1 1270  12.231   0.507   3.578
  318SOL    HW2 1271  12.373   0.532   3.537
  318SOL     MW 1272  12.312   0.477   3.565
  319SOL     OW 1273  11.528   1.014   3.671
  319SOL    HW1 1274  11.553   1.063   3.749
  319SOL    HW2 1275  11.479   0.939   3.704
  319SOL     MW 1276  11.525   1.011   3.684
  320SOL     OW 1277  11.006   0.204   5.365
  320SOL    HW1 1278  11.024   0.265   5.437
  320SOL    HW2 1279  10.976   0.125   5.408
  320SOL     MW 1280  11.005   0.202   5.379
  321SOL     OW 1281  10.897   2.364   5.712
  321SOL    HW1 1282  10.824   2.330   5.659
  321SOL    HW2 1283  10.937   2.286   5.749
  321SOL     MW 1284  10.892   2.350   5.710
  322SOL     OW 1285  10.650   3.332   3.139
  322SOL    HW1 1286  10.609   3.253   3.177
  322SOL    HW2 1287  10.743   3.319   3.154
  322SOL     MW 1288  10.656   3.320   3.145
  323SOL     OW 1289  13.064   0.105   3.640
  323SOL    HW1 1290  12.985   0.151   3.672
  323SOL    HW2 1291  13.123   0.106   3.715
  323SOL     MW 1292  13.061   0.111   3.653
  324SOL     OW 1293  10.063   1.082   5.813
  324SOL    HW1 1294  10.010   1.002   5.802
  324SOL    HW2 1295  10.067   1.095   5.907
  324SOL     MW 1296  10.057   1.073   5.823
  325SOL     OW 1297  12.696   0.506   3.313
  325SOL    HW1 1298  12.746   0.480   3.391
  325SOL    HW2 1299  12.610   0.528   3.347
  325SOL     MW 1300  12.692   0.506   3.326
  326SOL     OW 1301  10.644   0.203   5.873
  326SOL    HW1 1302  10.632   0.295   5.848
  326SOL    HW2 1303  10.638   0.156   5.791
  326SOL     MW 1304  10.642   0.209   5.860
  327SOL     OW 1305  12.805   0.297   4.368
  327SOL    HW1 1306  12.787   0.365   4.433
  327SOL    HW2 1307  12.898   0.280   4.377
  327SOL     MW 1308  12.814   0.303   4.377
  328SOL     OW 1309  10.477   2.653   4.300
  328SOL    HW1 1310  10.453   2.589   4.233
  328SOL    HW2 1311  10.571   2.643   4.309
  328SOL     MW 1312  10.485   2.644   4.293
  329SOL     OW 1313  10.819   0.628   5.365
  329SOL    HW1 1314  10.849   0.626   5.274
  329SOL    HW2 1315  10.774   0.711   5.373
  329SOL     MW 1316  10.817   0.638   5.355
  330SOL     OW 1317  13.096   2.006   4.084
  330SOL    HW1 1318  13.128   1.915   4.086
  330SOL    HW2 1319  13.011   2.002   4.126
  330SOL     MW 1320  13.090   1.994   4.089
  331SOL     OW 1321  10.927   1.931   4.668
  331SOL    HW1 1322  10.845   1.935   4.718
  331SOL    HW2 1323  10.977   2.004   4.699
  331SOL     MW 1324  10.923   1.940   4.678
  332SOL     OW 1325  12.122   0.914   3.284
  332SOL    HW1 1326  12.053   0.849   3.303
  332SOL    HW2 1327  12.116   0.975   3.356
  332SOL     MW 1328  12.113   0.913   3.295
  333SOL     OW 1329  10.918   1.358   3.915
  333SOL    HW1 1330  10.826   1.359   3.943
  333SOL    HW2 1331  10.965   1.391   3.990
  333SOL     MW 1332  10.912   1.362   3.927
  334SOL     OW 1333  12.352   0.191   3.900
  334SOL    HW1 1334  12.401   0.263   3.860
  334SOL    HW2 1335  12.415   0.147   3.955
  334SOL     MW 1336  12.365   0.194   3.902
  335SOL     OW 1337  10.041   2.067   5.595
  335SOL    HW1 1338  10.010   2.147   5.550
  335SOL    HW2 1339  10.123   2.047   5.551
  335SOL     MW 1340  10.047   2.075   5.584
  336SOL     OW 1341  11.020   1.640   5.535
  336SOL    HW1 1342  11.023   1.558   5.584
  336SOL    HW2 1343  10.940   1.682   5.564
  336SOL     MW 1344  11.011   1.635   5.544
  337SOL     OW 1345  12.673   0.084   4.965
  337SOL    HW1 1346  12.672   0.015   5.033
  337SOL    HW2 1347  12.713   0.158   5.008
  337SOL     MW 1348  12.677   0.084   4.979
  338SOL     OW 1349  10.687   3.048   3.170
  338SOL    HW1 1350  10.664   3.019   3.080
  338SOL    HW2 1351  10.778   3.072   3.164
  338SOL     MW 1352  10.695   3.047   3.158
  339SOL     OW 1353  13.161   0.742   5.304
  339SOL    HW1 1354  13.099   0.707   5.369
  339SOL    HW2 1355  13.161   0.836   5.320
  339SOL     MW 1356  13.153   0.749   5.314
  340SOL     OW 1357  10.526   0.074   4.108
  340SOL    HW1 1358  10.499   0.160   4.073
  340SOL    HW2 1359  10.537   0.020   4.031
  340SOL     MW 1360  10.524   0.079   4.095
  341SOL     OW 1361  13.048   0.488   6.093
  341SOL    HW1 1362  13.107   0.501   6.018
  341SOL    HW2 1363  12.996   0.567   6.096
  341SOL     MW 1364  13.049   0.499   6.084
  342SOL     OW 1365  10.062   2.245   5.290
  342SOL    HW1 1366  10.101   2.158   5.275
  342SOL    HW2 1367  10.102   2.300   5.224
  342SOL     MW 1368  10.071   2.241   5.280
  343SOL     OW 1369  12.140   0.834   5.390
  343SOL    HW1 1370  12.184   0.794   5.465
  343SOL    HW2 1371  12.071   0.773   5.369
  343SOL     MW 1372  12.137   0.822   5.397
  344SOL     OW 1373  10.246   2.237   4.993
  344SOL    HW1 1374  10.311   2.298   4.957
  344SOL    HW2 1375  10.187   2.221   4.920
  344SOL     MW 1376  10.247   2.242   4.980
  345SOL     OW 1377  10.220   2.127   3.277
  345SOL    HW1 1378  10.227   2.154   3.185
  345SOL    HW2 1379  10.307   2.142   3.312
  345SOL     MW 1380  10.231   2.132   3.270
  346SOL     OW 1381  10.988   0.127   4.214
  346SOL    HW1 1382  11.002   0.164   4.302
  346SOL    HW2 1383  11.071   0.084   4.194
  346SOL     MW 1384  11.000   0.127   4.223
  347SOL     OW 1385  11.680   1.023   4.084
  347SOL    HW1 1386  11.683   1.032   4.180
  347SOL    HW2 1387  11.681   0.930   4.068
  347SOL     MW 1388  11.680   1.013   4.094
  348SOL     OW 1389  10.748   1.541   5.904
  348SOL    HW1 1390  10.757   1.533   5.809
  348SOL    HW2 1391  10.834   1.570   5.934
  348SOL     MW 1392  10.759   1.543   5.896
  349SOL     OW 1393  10.457   2.755   6.202
  349SOL    HW1 1394  10.383   2.754   6.140
  349SOL    HW2 1395  10.507   2.678   6.180
  349SOL     MW 1396  10.454   2.746   6.192
  350SOL     OW 1397  11.489   0.328   5.469
  350SOL    HW1 1398  11.513   0.243   5.431
  350SOL    HW2 1399  11.572   0.375   5.475
  350SOL     MW 1400  11.502   0.323   5.465
  351SOL     OW 1401  11.275   2.187   3.710
  351SOL    HW1 1402  11.254   2.278   3.730
  351SOL    HW2 1403  11.296   2.187   3.617
  351SOL     MW 1404  11.275   2.198   3.701
  352SOL     OW 1405  10.331   2.506   5.261
  352SOL    HW1 1406  10.282   2.424   5.246
  352SOL    HW2 1407  10.330   2.550   5.177
  352SOL     MW 1408  10.325   2.501   5.249
  353SOL     OW 1409  13.022   1.628   5.069
  353SOL    HW1 1410  13.090   1.685   5.107
  353SOL    HW2 1411  13.003   1.566   5.139
  353SOL     MW 1412  13.028   1.628   5.082
  354SOL     OW 1413  11.618   0.698   4.794
  354SOL    HW1 1414  11.637   0.789   4.768
  354SOL    HW2 1415  11.550   0.706   4.859
  354SOL     MW 1416  11.612   0.710   4.799
  355SOL     OW 1417  12.703   1.718   4.534
  355SOL    HW1 1418  12.627   1.736   4.478
  355SOL    HW2 1419  12.754   1.655   4.485
  355SOL     MW 1420  12.700   1.713   4.521
  356SOL     OW 1421  12.963   3.399   5.130
  356SOL    HW1 1422  12.910   3.460   5.182
  356SOL    HW2 1423  13.052   3.420   5.155
  356SOL     MW 1424  12.967   3.409   5.140
  357SOL     OW 1425  11.234   1.418   5.475
  357SOL    HW1 1426  11.185   1.387   5.552
  357SOL    HW2 1427  11.306   1.468   5.512
  357SOL     MW 1428  11.236   1.420   5.489
  358SOL     OW 1429  13.034   2.230   3.861
  358SOL    HW1 1430  12.995   2.304   3.907
  358SOL    HW2 1431  13.111   2.208   3.913
  358SOL     MW 1432  13.039   2.236   3.873
  359SOL     OW 1433  11.728   1.849   6.280
  359SOL    HW1 1434  11.639   1.885   6.286
  359SOL    HW2 1435  11.723   1.785   6.211
  359SOL     MW 1436  11.717   1.846   6.273
  360SOL     OW 1437  12.204   2.218   3.766
  360SOL    HW1 1438  12.163   2.188   3.684
  360SOL    HW2 1439  12.215   2.312   3.753
  360SOL     MW 1440  12.200   2.226   3.754
  361SOL     OW 1441  12.583   0.275   5.217
  361SOL    HW1 1442  12.666   0.298   5.176
  361SOL    HW2 1443  12.519   0.329   5.172
  361SOL     MW 1444  12.585   0.285   5.207
  362SOL     OW 1445  13.185   0.777   6.101
  362SOL    HW1 1446  13.221   0.826   6.175
  362SOL    HW2 1447  13.192   0.686   6.128
  362SOL     MW 1448  13.191   0.772   6.114
  363SOL     OW 1449  10.047   2.829   5.963
  363SOL    HW1 1450  10.009   2.905   6.009
  363SOL    HW2 1451  10.123   2.806   6.014
  363SOL     MW 1452  10.051   2.836   5.975
  364SOL     OW 1453  12.199   3.190   3.449
  364SOL    HW1 1454  12.156   3.118   3.496
  364SOL    HW2 1455  12.250   3.147   3.382
  364SOL     MW 1456  12.200   3.176   3.447
  365SOL     OW 1457  12.802   3.340   4.194
  365SOL    HW1 1458  12.787   3.432   4.173
  365SOL    HW2 1459  12.715   3.303   4.201
  365SOL     MW 1460  12.790   3.347   4.192
  366SOL     OW 1461  10.883   1.397   4.776
  366SOL    HW1 1462  10.958   1.337   4.770
  366SOL    HW2 1463  10.816   1.356   4.722
  366SOL     MW 1464  10.884   1.385   4.769
  367SOL     OW 1465  10.818   2.035   5.731
  367SOL    HW1 1466  10.840   2.090   5.806
  367SOL    HW2 1467  10.779   2.095   5.668
  367SOL     MW 1468  10.816   2.049   5.732
  368SOL     OW 1469  11.775   0.499   4.287
  368SOL    HW1 1470  11.683   0.516   4.262
  368SOL    HW2 1471  11.782   0.405   4.286
  368SOL     MW 1472  11.765   0.490   4.284
  369SOL     OW 1473  11.571   1.619   3.410
  369SOL    HW1 1474  11.554   1.533   3.451
  369SOL    HW2 1475  11.648   1.651   3.454
  369SOL     MW 1476  11.578   1.612   3.420
  370SOL     OW 1477  10.211   2.773   6.349
  370SOL    HW1 1478  10.173   2.689   6.376
  370SOL    HW2 1479  10.304   2.763   6.365
  370SOL     MW 1480  10.217   2.762   6.354
  371SOL     OW 1481  12.373   2.043   3.960
  371SOL    HW1 1482  12.345   2.107   3.894
  371SOL    HW2 1483  12.300   1.984   3.967
  371SOL     MW 1484  12.361   2.044   3.952
  372SOL     OW 1485  10.152   1.360   5.071
  372SOL    HW1 1486  10.113   1.416   5.140
  372SOL    HW2 1487  10.082   1.349   5.008
  372SOL     MW 1488  10.139   1.366   5.072
  373SOL     OW 1489  10.442   2.973   4.295
  373SOL    HW1 1490  10.406   2.898   4.342
  373SOL    HW2 1491  10.418   3.048   4.348
  373SOL     MW 1492  10.435   2.973   4.307
  374SOL     OW 1493  10.605   0.999   3.297
  374SOL    HW1 1494  10.625   0.905   3.303
  374SOL    HW2 1495  10.678   1.035   3.248
  374SOL     MW 1496  10.616   0.992   3.292
  375SOL     OW 1497  11.831   0.839   3.523
  375SOL    HW1 1498  11.867   0.788   3.596
  375SOL    HW2 1499  11.819   0.775   3.454
  375SOL     MW 1500  11.834   0.825   3.524
  376SOL     OW 1501  10.389   1.000   5.746
  376SOL    HW1 1502  10.414   1.086   5.711
  376SOL    HW2 1503  10.309   0.979   5.700
  376SOL     MW 1504  10.383   1.008   5.736
  377SOL     OW 1505  12.985   3.313   4.619
  377SOL    HW1 1506  13.056   3.251   4.638
  377SOL    HW2 1507  12.923   3.299   4.689
  377SOL     MW 1508  12.986   3.304   4.630
  378SOL     OW 1509  12.135   0.325   3.684
  378SOL    HW1 1510  12.066   0.260   3.694
  378SOL    HW2 1511  12.208   0.289   3.733
  378SOL     MW 1512  12.135   0.313   3.691
  379SOL     OW 1513  10.839   1.134   3.606
  379SOL    HW1 1514  10.814   1.223   3.578
  379SOL    HW2 1515  10.932   1.129   3.587
  379SOL     MW 1516  10.847   1.145   3.601
  380SOL     OW 1517  10.500   0.719   4.760
  380SOL    HW1 1518  10.550   0.655   4.710
  380SOL    HW2 1519  10.409   0.700   4.739
  380SOL     MW 1520  10.495   0.709   4.752
  381SOL     OW 1521  10.583   3.266   4.314
  381SOL    HW1 1522  10.662   3.247   4.367
  381SOL    HW2 1523  10.601   3.226   4.230
  381SOL     MW 1524  10.595   3.259   4.311
  382SOL     OW 1525  12.591   1.519   3.799
  382SOL    HW1 1526  12.612   1.595   3.744
  382SOL    HW2 1527  12.497   1.510   3.792
  382SOL     MW 1528  12.583   1.527   3.791
  383SOL     OW 1529  11.012   1.664   4.409
  383SOL    HW1 1530  11.080   1.675   4.476
  383SOL    HW2 1531  10.963   1.745   4.412
  383SOL     MW 1532  11.014   1.675   4.418
  384SOL     OW 1533  11.816   0.055   4.506
  384SOL    HW1 1534  11.794   0.149   4.507
  384SOL    HW2 1535  11.735   0.012   4.531
  384SOL     MW 1536  11.804   0.061   4.509
  385SOL     OW 1537  12.576   0.680   4.668
  385SOL    HW1 1538  12.488   0.666   4.632
  385SOL    HW2 1539  12.627   0.712   4.594
  385SOL     MW 1540  12.572   0.682   4.655
  386SOL     OW 1541  12.381   1.105   6.369
  386SOL    HW1 1542  12.304   1.148   6.330
  386SOL    HW2 1543  12.372   1.014   6.344
  386SOL     MW 1544  12.370   1.100   6.361
  387SOL     OW 1545  10.021   3.369   6.281
  387SOL    HW1 1546  10.098   3.394   6.334
  387SOL    HW2 1547  10.039   3.279   6.256
  387SOL     MW 1548  10.033   3.361   6.285
  388SOL     OW 1549  11.080   3.246   3.302
  388SOL    HW1 1550  11.154   3.204   3.258
  388SOL    HW2 1551  11.030   3.285   3.231
  388SOL     MW 1552  11.083   3.246   3.288
  389SOL     OW 1553  11.713   3.036   4.051
  389SOL    HW1 1554  11.686   3.105   4.113
  389SOL    HW2 1555  11.772   3.080   3.991
  389SOL     MW 1556  11.717   3.050   4.051
  390SOL     OW 1557  13.238   2.383   5.572
  390SOL    HW1 1558  13.325   2.421   5.559
  390SOL    HW2 1559  13.255   2.291   5.589
  390SOL     MW 1560  13.250   2.377   5.572
  391SOL     OW 1561  11.894   1.779   6.406
  391SOL    HW1 1562  11.979   1.825   6.410
  391SOL    HW2 1563  11.847   1.812   6.482
  391SOL     MW 1564  11.899   1.788   6.416
  392SOL     OW 1565  13.062   3.224   6.211
  392SOL    HW1 1566  13.079   3.271   6.293
  392SOL    HW2 1567  13.083   3.134   6.231
  392SOL     MW 1568  13.067   3.219   6.223
  393SOL     OW 1569  10.495   1.439   4.665
  393SOL    HW1 1570  10.450   1.450   4.749
  393SOL    HW2 1571  10.495   1.526   4.627
  393SOL     MW 1572  10.490   1.451   4.671
  394SOL     OW 1573  11.037   1.565   3.114
  394SOL    HW1 1574  10.987   1.574   3.195
  394SOL    HW2 1575  11.127   1.559   3.143
  394SOL     MW 1576  11.042   1.566   3.127
  395SOL     OW 1577  11.281   2.444   3.487
  395SOL    HW1 1578  11.277   2.441   3.583
  395SOL    HW2 1579  11.318   2.529   3.467
  395SOL     MW 1580  11.285   2.453   3.496
  396SOL     OW 1581  12.991   2.228   4.256
  396SOL    HW1 1582  12.995   2.301   4.319
  396SOL    HW2 1583  13.073   2.233   4.209
  396SOL     MW 1584  13.002   2.238   4.258
  397SOL     OW 1585  11.057   2.572   6.399
  397SOL    HW1 1586  10.998   2.506   6.436
  397SOL    HW2 1587  11.116   2.523   6.344
  397SOL     MW 1588  11.056   2.559   6.397
  398SOL     OW 1589  10.709   0.517   5.793
  398SOL    HW1 1590  10.731   0.547   5.882
  398SOL    HW2 1591  10.746   0.583   5.736
  398SOL     MW 1592  10.716   0.528   5.797
  399SOL     OW 1593  12.238   1.952   3.050
  399SOL    HW1 1594  12.195   2.033   3.079
  399SOL    HW2 1595  12.302   1.934   3.116
  399SOL     MW 1596  12.240   1.959   3.061
  400SOL     OW 1597  12.222   0.809   4.458
  400SOL    HW1 1598  12.279   0.850   4.524
  400SOL    HW2 1599  12.196   0.726   4.497
  400SOL     MW 1600  12.226   0.804   4.471
  401SOL     OW 1601  11.005   0.957   5.581
  401SOL    HW1 1602  11.053   0.905   5.646
  401SOL    HW2 1603  10.913   0.938   5.598
  401SOL     MW 1604  11.000   0.948   5.591
  402SOL     OW 1605  13.108   1.857   4.488
  402SOL    HW1 1606  13.037   1.871   4.425
  402SOL    HW2 1607  13.085   1.775   4.530
  402SOL     MW 1608  13.097   1.849   4.485
  403SOL     OW 1609  12.935   2.996   6.132
  403SOL    HW1 1610  12.894   3.082   6.123
  403SOL    HW2 1611  13.002   2.995   6.064
  403SOL     MW 1612  12.938   3.006   6.123
  404SOL     OW 1613  11.865   1.699   5.659
  404SOL    HW1 1614  11.945   1.657   5.690
  404SOL    HW2 1615  11.795   1.648   5.699
  404SOL     MW 1616  11.866   1.688   5.667
  405SOL     OW 1617  10.300   2.020   5.263
  405SOL    HW1 1618  10.349   2.029   5.345
  405SOL    HW2 1619  10.245   1.944   5.278
  405SOL     MW 1620  10.300   2.012   5.275
  406SOL     OW 1621  12.172   0.289   3.392
  406SOL    HW1 1622  12.135   0.350   3.457
  406SOL    HW2 1623  12.263   0.281   3.416
  406SOL     MW 1624  12.178   0.296   3.403
  407SOL     OW 1625  10.278   0.048   3.510
  407SOL    HW1 1626  10.251   0.113   3.576
  407SOL    HW2 1627  10.371   0.037   3.525
  407SOL     MW 1628  10.286   0.055   3.520
  408SOL     OW 1629  12.020   2.463   4.694
  408SOL    HW1 1630  12.022   2.371   4.665
  408SOL    HW2 1631  12.011   2.457   4.788
  408SOL     MW 1632  12.019   2.451   4.701
  409SOL     OW 1633  10.084   3.197   6.056
  409SOL    HW1 1634  10.009   3.173   6.000
  409SOL    HW2 1635  10.094   3.290   6.044
  409SOL     MW 1636  10.076   3.205   6.048
  410SOL     OW 1637  13.341   3.098   4.604
  410SOL    HW1 1638  13.285   3.169   4.570
  410SOL    HW2 1639  13.313   3.088   4.695
  410SOL     MW 1640  13.331   3.106   4.611
  411SOL     OW 1641  12.082   1.232   5.911
  411SOL    HW1 1642  12.047   1.314   5.874
  411SOL    HW2 1643  12.071   1.242   6.005
  411SOL     MW 1644  12.076   1.243   5.918
  412SOL     OW 1645  10.818   3.096   4.214
  412SOL    HW1 1646  10.806   3.065   4.304
  412SOL    HW2 1647  10.823   3.191   4.223
  412SOL     MW 1648  10.817   3.104   4.226
  413SOL     OW 1649  11.332   3.229   3.093
  413SOL    HW1 1650  11.358   3.311   3.051
  413SOL    HW2 1651  11.252   3.204   3.049
  413SOL     MW 1652  11.326   3.236   3.083
  414SOL     OW 1653  10.140   0.274   4.727
  414SOL    HW1 1654  10.135   0.306   4.818
  414SOL    HW2 1655  10.050   0.280   4.695
  414SOL     MW 1656  10.129   0.279   4.734
  415SOL     OW 1657  10.850   0.195   3.925
  415SOL    HW1 1658  10.939   0.227   3.906
  415SOL    HW2 1659  10.806   0.200   3.841
  415SOL     MW 1660  10.856   0.199   3.913
  416SOL     OW 1661  11.546   1.977   4.953
  416SOL    HW1 1662  11.595   2.045   4.906
  416SOL    HW2 1663  11.525   2.016   5.036
  416SOL     MW 1664  11.549   1.990   4.957
  417SOL     OW 1665  10.927   1.159   6.121
  417SOL    HW1 1666  10.929   1.091   6.053
  417SOL    HW2 1667  11.019   1.178   6.137
  417SOL     MW 1668  10.938   1.153   6.114
  418SOL     OW 1669  10.031   3.247   5.791
  418SOL    HW1 1670  10.125   3.225   5.780
  418SOL    HW2 1671  10.009   3.294   5.712
  418SOL     MW 1672  10.040   3.250   5.780
  419SOL     OW 1673  12.540   0.421   5.837
  419SOL    HW1 1674  12.474   0.353   5.857
  419SOL    HW2 1675  12.495   0.502   5.854
  419SOL     MW 1676  12.526   0.422   5.841
  420SOL     OW 1677  11.338   0.099   3.102
  420SOL    HW1 1678  11.306   0.025   3.050
  420SOL    HW2 1679  11.267   0.161   3.101
  420SOL     MW 1680  11.326   0.097   3.096
  421SOL     OW 1681  12.059   1.541   3.783
  421SOL    HW1 1682  12.039   1.606   3.715
  421SOL    HW2 1683  11.989   1.478   3.776
  421SOL     MW 1684  12.048   1.542   3.774
  422SOL     OW 1685  11.904   2.065   4.454
  422SOL    HW1 1686  11.924   2.159   4.448
  422SOL    HW2 1687  11.982   2.023   4.418
  422SOL     MW 1688  11.916   2.072   4.449
  423SOL     OW 1689  11.954   2.950   4.637
  423SOL    HW1 1690  12.048   2.971   4.647
  423SOL    HW2 1691  11.926   2.927   4.724
  423SOL     MW 1692  11.962   2.950   4.648
  424SOL     OW 1693  10.756   3.167   4.015
  424SOL    HW1 1694  10.763   3.096   3.949
  424SOL    HW2 1695  10.831   3.222   3.998
  424SOL     MW 1696  10.765   3.164   4.005
  425SOL     OW 1697  11.514   1.638   3.122
  425SOL    HW1 1698  11.486   1.605   3.208
  425SOL    HW2 1699  11.584   1.699   3.141
  425SOL     MW 1700  11.519   1.641   3.134
  426SOL     OW 1701  10.939   0.770   3.565
  426SOL    HW1 1702  11.029   0.742   3.544
  426SOL    HW2 1703  10.918   0.833   3.497
  426SOL     MW 1704  10.948   0.774   3.554
  427SOL     OW 1705  13.070   0.538   5.721
  427SOL    HW1 1706  13.060   0.586   5.804
  427SOL    HW2 1707  13.032   0.452   5.740
  427SOL     MW 1708  13.064   0.533   5.734
  428SOL     OW 1709  10.136   0.674   5.991
  428SOL    HW1 1710  10.199   0.602   5.988
  428SOL    HW2 1711  10.103   0.680   5.902
  428SOL     MW 1712  10.140   0.666   5.980
  429SOL     OW 1713  10.565   1.732   4.181
  429SOL    HW1 1714  10.513   1.712   4.260
  429SOL    HW2 1715  10.645   1.769   4.216
  429SOL     MW 1716  10.568   1.734   4.195
  430SOL     OW 1717  12.212   0.453   5.411
  430SOL    HW1 1718  12.149   0.516   5.374
  430SOL    HW2 1719  12.159   0.385   5.449
  430SOL     MW 1720  12.198   0.453   5.411
  431SOL     OW 1721  13.101   2.178   4.561
  431SOL    HW1 1722  13.066   2.256   4.606
  431SOL    HW2 1723  13.043   2.167   4.486
  431SOL     MW 1724  13.090   2.186   4.558
  432SOL     OW 1725  12.012   1.489   4.045
  432SOL    HW1 1726  12.059   1.574   4.041
  432SOL    HW2 1727  12.049   1.446   4.121
  432SOL     MW 1728  12.022   1.495   4.054
  433SOL     OW 1729  10.075   2.948   3.313
  433SOL    HW1 1730  10.048   3.017   3.375
  433SOL    HW2 1731  10.169   2.941   3.326
  433SOL     MW 1732  10.083   2.956   3.322
  434SOL     OW 1733  11.296   1.521   3.391
  434SOL    HW1 1734  11.272   1.505   3.300
  434SOL    HW2 1735  11.353   1.597   3.388
  434SOL     MW 1736  11.300   1.528   3.380
  435SOL     OW 1737  13.104   2.658   3.438
  435SOL    HW1 1738  13.018   2.699   3.449
  435SOL    HW2 1739  13.145   2.709   3.369
  435SOL     MW 1740  13.098   2.669   3.431
  436SOL     OW 1741  11.770   2.507   5.094
  436SOL    HW1 1742  11.743   2.590   5.054
  436SOL    HW2 1743  11.864   2.505   5.082
  436SOL     MW 1744  11.778   2.517   5.088
  437SOL     OW 1745  11.038   0.961   4.419
  437SOL    HW1 1746  11.114   0.969   4.477
  437SOL    HW2 1747  11.072   0.979   4.333
  437SOL     MW 1748  11.051   0.964   4.416
  438SOL     OW 1749  12.748   2.676   3.700
  438SOL    HW1 1750  12.778   2.764   3.675
  438SOL    HW2 1751  12.697   2.647   3.626
  438SOL     MW 1752  12.746   2.683   3.688
  439SOL     OW 1753  12.724   1.931   4.690
  439SOL    HW1 1754  12.674   1.986   4.750
  439SOL    HW2 1755  12.667   1.921   4.615
  439SOL     MW 1756  12.712   1.936   4.688
  440SOL     OW 1757  12.053   0.289   4.048
  440SOL    HW1 1758  12.100   0.372   4.037
  440SOL    HW2 1759  12.106   0.240   4.110
  440SOL     MW 1760  12.065   0.293   4.054
  441SOL     OW 1761  13.341   0.152   4.931
  441SOL    HW1 1762  13.273   0.088   4.907
  441SOL    HW2 1763  13.296   0.216   4.984
  441SOL     MW 1764  13.327   0.152   4.934
  442SOL     OW 1765  12.474   1.477   3.167
  442SOL    HW1 1766  12.560   1.518   3.180
  442SOL    HW2 1767  12.493   1.393   3.128
  442SOL     MW 1768  12.486   1.472   3.164
  443SOL     OW 1769  12.862   0.756   4.535
  443SOL    HW1 1770  12.899   0.845   4.532
  443SOL    HW2 1771  12.938   0.699   4.533
  443SOL     MW 1772  12.876   0.760   4.534
  444SOL     OW 1773  12.636   2.316   5.920
  444SOL    HW1 1774  12.697   2.273   5.858
  444SOL    HW2 1775  12.671   2.403   5.930
  444SOL     MW 1776  12.648   2.321   5.913
  445SOL     OW 1777  11.547   3.438   6.508
  445SOL    HW1 1778  11.458   3.460   6.477
  445SOL    HW2 1779  11.549   3.343   6.510
  445SOL     MW 1780  11.536   3.430   6.504
  446SOL     OW 1781  11.841   2.988   6.416
  446SOL    HW1 1782  11.900   2.912   6.424
  446SOL    HW2 1783  11.801   2.977   6.331
  446SOL     MW 1784  11.844   2.977   6.407
  447SOL     OW 1785  13.088   3.194   4.869
  447SOL    HW1 1786  12.994   3.194   4.890
  447SOL    HW2 1787  13.098   3.121   4.810
  447SOL     MW 1788  13.078   3.185   4.864
  448SOL     OW 1789  12.481   1.796   3.868
  448SOL    HW1 1790  12.443   1.877   3.833
  448SOL    HW2 1791  12.450   1.729   3.809
  448SOL     MW 1792  12.473   1.798   3.856
  449SOL     OW 1793  10.119   3.030   4.737
  449SOL    HW1 1794  10.200   3.001   4.782
  449SOL    HW2 1795  10.053   2.967   4.765
  449SOL     MW 1796  10.121   3.019   4.746
  450SOL     OW 1797  10.398   3.361   3.314
  450SOL    HW1 1798  10.481   3.400   3.283
  450SOL    HW2 1799  10.334   3.389   3.250
  450SOL     MW 1800  10.401   3.369   3.303
  451SOL     OW 1801  10.651   0.038   3.616
  451SOL    HW1 1802  10.597  -0.000   3.686
  451SOL    HW2 1803  10.640   0.132   3.627
  451SOL     MW 1804  10.643   0.044   3.626
  452SOL     OW 1805  12.712   0.981   3.747
  452SOL    HW1 1806  12.745   0.913   3.686
  452SOL    HW2 1807  12.773   1.053   3.737
  452SOL     MW 1808  12.723   0.981   3.738
  453SOL     OW 1809  11.270   1.161   4.524
  453SOL    HW1 1810  11.205   1.232   4.524
  453SOL    HW2 1811  11.249   1.111   4.602
  453SOL     MW 1812  11.259   1.164   4.533
  454SOL     OW 1813  12.586   1.267   3.371
  454SOL    HW1 1814  12.504   1.235   3.412
  454SOL    HW2 1815  12.573   1.253   3.279
  454SOL     MW 1816  12.574   1.261   3.365
  455SOL     OW 1817  12.022   3.066   3.904
  455SOL    HW1 1818  12.113   3.094   3.917
  455SOL    HW2 1819  12.022   2.973   3.926
  455SOL     MW 1820  12.033   3.058   3.908
  456SOL     OW 1821  11.013   0.021   3.644
  456SOL    HW1 1822  11.101  -0.000   3.676
  456SOL    HW2 1823  10.956   0.000   3.716
  456SOL     MW 1824  11.017   0.016   3.656
  457SOL     OW 1825  10.932   2.405   6.242
  457SOL    HW1 1826  10.852   2.432   6.289
  457SOL    HW2 1827  10.958   2.483   6.194
  457SOL     MW 1828  10.925   2.418   6.242
  458SOL     OW 1829  12.608   2.458   3.301
  458SOL    HW1 1830  12.620   2.405   3.380
  458SOL    HW2 1831  12.515   2.477   3.299
  458SOL     MW 1832  12.598   2.454   3.310
  459SOL     OW 1833  12.000   3.334   3.166
  459SOL    HW1 1834  12.044   3.392   3.230
  459SOL    HW2 1835  12.011   3.247   3.201
  459SOL     MW 1836  12.007   3.331   3.178
  460SOL     OW 1837  10.276   2.891   5.603
  460SOL    HW1 1838  10.194   2.873   5.557
  460SOL    HW2 1839  10.300   2.979   5.576
  460SOL     MW 1840  10.269   2.899   5.594
  461SOL     OW 1841  12.310   0.888   4.240
  461SOL    HW1 1842  12.389   0.928   4.277
  461SOL    HW2 1843  12.342   0.814   4.192
  461SOL     MW 1844  12.324   0.884   4.239
  462SOL     OW 1845  13.244   1.315   3.768
  462SOL    HW1 1846  13.283   1.394   3.806
  462SOL    HW2 1847  13.173   1.348   3.713
  462SOL     MW 1848  13.240   1.328   3.766
  463SOL     OW 1849  12.881   1.926   5.733
  463SOL    HW1 1850  12.857   1.923   5.826
  463SOL    HW2 1851  12.942   1.999   5.727
  463SOL     MW 1852  12.885   1.935   5.744
  464SOL     OW 1853  10.340   3.032   3.517
  464SOL    HW1 1854  10.418   2.990   3.555
  464SOL    HW2 1855  10.268   2.978   3.546
  464SOL     MW 1856  10.341   3.021   3.525
  465SOL     OW 1857  12.609   0.290   4.764
  465SOL    HW1 1858  12.654   0.322   4.842
  465SOL    HW2 1859  12.597   0.197   4.780
  465SOL     MW 1860  12.613   0.283   4.775
  466SOL     OW 1861  11.547   2.393   4.762
  466SOL    HW1 1862  11.452   2.385   4.777
  466SOL    HW2 1863  11.572   2.470   4.811
  466SOL     MW 1864  11.538   2.401   4.770
  467SOL     OW 1865  11.362   1.425   6.480
  467SOL    HW1 1866  11.430   1.366   6.446
  467SOL    HW2 1867  11.298   1.428   6.410
  467SOL     MW 1868  11.363   1.418   6.468
  468SOL     OW 1869  10.549   2.784   4.742
  468SOL    HW1 1870  10.532   2.732   4.822
  468SOL    HW2 1871  10.510   2.733   4.672
  468SOL     MW 1872  10.543   2.772   4.744
  469SOL     OW 1873  12.809   2.510   4.943
  469SOL    HW1 1874  12.723   2.467   4.934
  469SOL    HW2 1875  12.864   2.446   4.984
  469SOL     MW 1876  12.805   2.497   4.946
  470SOL     OW 1877  11.698   2.940   5.990
  470SOL    HW1 1878  11.635   2.961   5.920
  470SOL    HW2 1879  11.722   2.850   5.973
  470SOL     MW 1880  11.693   2.932   5.979
  471SOL     OW 1881  12.352   1.792   3.451
  471SOL    HW1 1882  12.298   1.746   3.516
  471SOL    HW2 1883  12.302   1.786   3.370
  471SOL     MW 1884  12.340   1.786   3.449
  472SOL     OW 1885  11.580   0.892   5.047
  472SOL    HW1 1886  11.638   0.942   5.107
  472SOL    HW2 1887  11.635   0.873   4.972
  472SOL     MW 1888  11.594   0.896   5.046
  473SOL     OW 1889  11.100   0.073   3.953
  473SOL    HW1 1890  11.139   0.003   3.900
  473SOL    HW2 1891  11.146   0.152   3.926
  473SOL     MW 1892  11.110   0.074   3.943
  474SOL     OW 1893  10.507   1.653   5.069
  474SOL    HW1 1894  10.598   1.622   5.066
  474SOL    HW2 1895  10.502   1.719   5.000
  474SOL     MW 1896  10.517   1.657   5.060
  475SOL     OW 1897  10.473   1.347   5.087
  475SOL    HW1 1898  10.453   1.277   5.024
  475SOL    HW2 1899  10.563   1.371   5.068
  475SOL     MW 1900  10.481   1.341   5.077
  476SOL     OW 1901  12.194   1.796   4.245
  476SOL    HW1 1902  12.223   1.804   4.154
  476SOL    HW2 1903  12.244   1.722   4.279
  476SOL     MW 1904  12.204   1.788   4.238
  477SOL     OW 1905  10.411   3.406   5.790
  477SOL    HW1 1906  10.439   3.334   5.847
  477SOL    HW2 1907  10.357   3.461   5.846
  477SOL     MW 1908  10.408   3.404   5.804
  478SOL     OW 1909  12.258   3.249   4.995
  478SOL    HW1 1910  12.219   3.306   4.929
  478SOL    HW2 1911  12.186   3.193   5.023
  478SOL     MW 1912  12.245   3.249   4.990
  479SOL     OW 1913  10.176   3.014   5.810
  479SOL    HW1 1914  10.221   2.958   5.874
  479SOL    HW2 1915  10.084   2.993   5.821
  479SOL     MW 1916  10.170   3.005   5.819
  480SOL     OW 1917  10.961   0.883   5.868
  480SOL    HW1 1918  10.905   0.847   5.798
  480SOL    HW2 1919  11.044   0.839   5.856
  480SOL     MW 1920  10.964   0.873   5.858
  481SOL     OW 1921  11.953   3.350   3.471
  481SOL    HW1 1922  11.975   3.364   3.564
  481SOL    HW2 1923  11.993   3.266   3.451
  481SOL     MW 1924  11.961   3.342   3.480
  482SOL     OW 1925  11.225   1.340   3.601
  482SOL    HW1 1926  11.275   1.333   3.683
  482SOL    HW2 1927  11.160   1.271   3.608
  482SOL     MW 1928  11.223   1.331   3.612
  483SOL     OW 1929  10.067   1.215   3.223
  483SOL    HW1 1930  10.136   1.250   3.279
  483SOL    HW2 1931  10.066   1.273   3.147
  483SOL     MW 1932  10.075   1.226   3.221
  484SOL     OW 1933  10.677   0.892   4.490
  484SOL    HW1 1934  10.596   0.945   4.495
  484SOL    HW2 1935  10.718   0.919   4.409
  484SOL     MW 1936  10.672   0.902   4.481
  485SOL     OW 1937  12.455   0.132   5.700
  485SOL    HW1 1938  12.451   0.041   5.730
  485SOL    HW2 1939  12.540   0.163   5.729
  485SOL     MW 1940  12.464   0.125   5.707
  486SOL     OW 1941  12.094   0.579   4.926
  486SOL    HW1 1942  12.105   0.506   4.864
  486SOL    HW2 1943  12.064   0.538   5.006
  486SOL     MW 1944  12.092   0.565   4.928
  487SOL     OW 1945  12.392   2.610   5.001
  487SOL    HW1 1946  12.317   2.598   5.059
  487SOL    HW2 1947  12.435   2.689   5.032
  487SOL     MW 1948  12.388   2.618   5.012
  488SOL     OW 1949  12.765   0.779   4.135
  488SOL    HW1 1950  12.740   0.872   4.127
  488SOL    HW2 1951  12.683   0.733   4.135
  488SOL     MW 1952  12.752   0.785   4.134
  489SOL     OW 1953  12.469   2.461   5.772
  489SOL    HW1 1954  12.530   2.494   5.705
  489SOL    HW2 1955  12.387   2.504   5.752
  489SOL     MW 1956  12.466   2.470   5.761
  490SOL     OW 1957  12.226   2.172   5.306
  490SOL    HW1 1958  12.296   2.172   5.241
  490SOL    HW2 1959  12.179   2.253   5.291
  490SOL     MW 1960  12.229   2.181   5.297
  491SOL     OW 1961  12.979   2.996   5.335
  491SOL    HW1 1962  13.026   2.927   5.384
  491SOL    HW2 1963  13.046   3.035   5.280
  491SOL     MW 1964  12.993   2.992   5.334
  492SOL     OW 1965  11.136   2.554   3.101
  492SOL    HW1 1966  11.163   2.623   3.162
  492SOL    HW2 1967  11.217   2.524   3.062
  492SOL     MW 1968  11.149   2.559   3.104
  493SOL     OW 1969  10.401   1.401   5.309
  493SOL    HW1 1970  10.413   1.322   5.364
  493SOL    HW2 1971  10.335   1.451   5.355
  493SOL     MW 1972  10.395   1.397   5.321
  494SOL     OW 1973  11.469   2.391   4.463
  494SOL    HW1 1974  11.496   2.325   4.528
  494SOL    HW2 1975  11.377   2.404   4.480
  494SOL     MW 1976  11.462   2.384   4.473
  495SOL     OW 1977  13.029   3.218   5.429
  495SOL    HW1 1978  12.941   3.183   5.445
  495SOL    HW2 1979  13.087   3.151   5.463
  495SOL     MW 1980  13.025   3.206   5.435
  496SOL     OW 1981  10.729   2.247   3.350
  496SOL    HW1 1982  10.734   2.194   3.430
  496SOL    HW2 1983  10.812   2.231   3.306
  496SOL     MW 1984  10.740   2.238   3.354
  497SOL     OW 1985  11.704   2.955   4.405
  497SOL    HW1 1986  11.656   2.969   4.488
  497SOL    HW2 1987  11.795   2.950   4.432
  497SOL     MW 1988  11.709   2.956   4.419
  498SOL     OW 1989  13.252   1.516   5.745
  498SOL    HW1 1990  13.298   1.462   5.680
  498SOL    HW2 1991  13.163   1.484   5.744
  498SOL     MW 1992  13.247   1.506   5.737
  499SOL     OW 1993  12.693   0.863   4.769
  499SOL    HW1 1994  12.769   0.849   4.711
  499SOL    HW2 1995  12.665   0.952   4.750
  499SOL     MW 1996  12.699   0.872   4.760
  500SOL     OW 1997  10.107   1.299   4.215
  500SOL    HW1 1998  10.169   1.357   4.261
  500SOL    HW2 1999  10.111   1.326   4.124
  500SOL     MW 2000  10.115   1.309   4.210
  501SOL     OW 2001  11.665   2.182   4.447
  501SOL    HW1 2002  11.721   2.201   4.523
  501SOL    HW2 2003  11.689   2.094   4.421
  501SOL     MW 2004  11.674   2.174   4.453
  502SOL     OW 2005  10.043   3.368   4.365
  502SOL    HW1 2006  10.010   3.328   4.284
  502SOL    HW2 2007  10.117   3.419   4.337
  502SOL     MW 2008  10.047   3.369   4.352
  503SOL     OW 2009  13.245   2.419   6.224
  503SOL    HW1 2010  13.199   2.418   6.308
  503SOL    HW2 2011  13.177   2.409   6.159
  503SOL     MW 2012  13.231   2.418   6.227
  504SOL     OW 2013  13.142   1.156   5.349
  504SOL    HW1 2014  13.056   1.189   5.322
  504SOL    HW2 2015  13.176   1.114   5.271
  504SOL     MW 2016  13.135   1.156   5.336
  505SOL     OW 2017  13.118   2.609   4.329
  505SOL    HW1 2018  13.101   2.691   4.282
  505SOL    HW2 2019  13.126   2.635   4.420
  505SOL     MW 2020  13.117   2.622   4.334
  506SOL     OW 2021  12.903   0.140   4.899
  506SOL    HW1 2022  12.969   0.122   4.831
  506SOL    HW2 2023  12.918   0.071   4.964
  506SOL     MW 2024  12.913   0.129   4.899
  507SOL     OW 2025  12.724   2.661   4.793
  507SOL    HW1 2026  12.716   2.734   4.731
  507SOL    HW2 2027  12.644   2.612   4.783
  507SOL     MW 2028  12.714   2.664   4.784
  508SOL     OW 2029  10.158   2.444   3.104
  508SOL    HW1 2030  10.218   2.466   3.175
  508SOL    HW2 2031  10.113   2.366   3.134
  508SOL     MW 2032  10.160   2.438   3.116
  509SOL     OW 2033  10.870   0.939   3.931
  509SOL    HW1 2034  10.938   0.982   3.984
  509SOL    HW2 2035  10.866   0.851   3.964
  509SOL     MW 2036  10.877   0.934   3.941
  510SOL     OW 2037  12.155   3.023   6.261
  510SOL    HW1 2038  12.118   3.016   6.173
  510SOL    HW2 2039  12.206   2.944   6.272
  510SOL     MW 2040  12.157   3.013   6.251
  511SOL     OW 2041  11.588   0.282   6.214
  511SOL    HW1 2042  11.630   0.259   6.130
  511SOL    HW2 2043  11.656   0.265   6.279
  511SOL     MW 2044  11.601   0.277   6.212
  512SOL     OW 2045  10.376   3.210   6.403
  512SOL    HW1 2046  10.403   3.145   6.469
  512SOL    HW2 2047  10.282   3.201   6.400
  512SOL     MW 2048  10.368   3.201   6.411
  513SOL     OW 2049  10.947   2.002   4.918
  513SOL    HW1 2050  10.854   1.983   4.932
  513SOL    HW2 2051  10.990   1.969   4.996
  513SOL     MW 2052  10.941   1.996   4.929
  514SOL     OW 2053  11.800   2.091   3.835
  514SOL    HW1 2054  11.823   2.086   3.742
  514SOL    HW2 2055  11.854   2.161   3.869
  514SOL     MW 2056  11.810   2.098   3.828
  515SOL     OW 2057  10.063   2.544   6.112
  515SOL    HW1 2058  10.009   2.564   6.188
  515SOL    HW2 2059  10.130   2.611   6.113
  515SOL     MW 2060  10.064   2.555   6.121
  516SOL     OW 2061  12.432   0.722   6.434
  516SOL    HW1 2062  12.369   0.741   6.505
  516SOL    HW2 2063  12.389   0.756   6.356
  516SOL     MW 2064  12.419   0.729   6.433
  517SOL     OW 2065  11.061   3.317   6.251
  517SOL    HW1 2066  10.969   3.344   6.253
  517SOL    HW2 2067  11.078   3.283   6.338
  517SOL     MW 2068  11.052   3.316   6.261
  518SOL     OW 2069  11.175   0.191   3.493
  518SOL    HW1 2070  11.183   0.271   3.546
  518SOL    HW2 2071  11.231   0.128   3.536
  518SOL     MW 2072  11.182   0.193   3.504
  519SOL     OW 2073  10.234   0.665   3.533
  519SOL    HW1 2074  10.317   0.651   3.578
  519SOL    HW2 2075  10.206   0.577   3.509
  519SOL     MW 2076  10.241   0.653   3.535
  520SOL     OW 2077  13.175   1.402   5.948
  520SOL    HW1 2078  13.108   1.467   5.969
  520SOL    HW2 2079  13.130   1.319   5.955
  520SOL     MW 2080  13.161   1.400   5.951
  521SOL     OW 2081  11.887   2.582   5.318
  521SOL    HW1 2082  11.920   2.639   5.247
  521SOL    HW2 2083  11.793   2.584   5.306
  521SOL     MW 2084  11.880   2.589   5.308
  522SOL     OW 2085  11.156  -0.001   3.280
  522SOL    HW1 2086  11.070   0.027   3.314
  522SOL    HW2 2087  11.213   0.003   3.356
  522SOL     MW 2088  11.153   0.003   3.293
  523SOL     OW 2089  10.331   0.325   3.603
  523SOL    HW1 2090  10.311   0.291   3.691
  523SOL    HW2 2091  10.254   0.375   3.579
  523SOL     MW 2092  10.319   0.327   3.611
  524SOL     OW 2093  12.883   1.807   4.054
  524SOL    HW1 2094  12.803   1.855   4.030
  524SOL    HW2 2095  12.910   1.765   3.974
  524SOL     MW 2096  12.877   1.808   4.042
  525SOL     OW 2097  10.579   2.154   4.896
  525SOL    HW1 2098  10.497   2.181   4.939
  525SOL    HW2 2099  10.643   2.217   4.927
  525SOL     MW 2100  10.576   2.165   4.905
  526SOL     OW 2101  11.689   1.040   5.788
  526SOL    HW1 2102  11.711   1.003   5.702
  526SOL    HW2 2103  11.744   0.992   5.848
  526SOL     MW 2104  11.698   1.030   5.785
  527SOL     OW 2105  12.893   1.250   5.648
  527SOL    HW1 2106  12.866   1.210   5.731
  527SOL    HW2 2107  12.987   1.256   5.655
  527SOL     MW 2108  12.901   1.246   5.659
  528SOL     OW 2109  11.873   2.515   6.150
  528SOL    HW1 2110  11.955   2.519   6.100
  528SOL    HW2 2111  11.834   2.601   6.139
  528SOL     MW 2112  11.878   2.526   6.143
  529SOL     OW 2113  11.354   2.593   5.379
  529SOL    HW1 2114  11.345   2.521   5.442
  529SOL    HW2 2115  11.279   2.649   5.396
  529SOL     MW 2116  11.344   2.591   5.388
  530SOL     OW 2117  10.957   1.322   4.307
  530SOL    HW1 2118  10.869   1.359   4.290
  530SOL    HW2 2119  10.947   1.229   4.290
  530SOL     MW 2120  10.945   1.315   4.303
  531SOL     OW 2121  10.166   3.463   3.794
  531SOL    HW1 2122  10.102   3.412   3.744
  531SOL    HW2 2123  10.222   3.397   3.835
  531SOL     MW 2124  10.165   3.449   3.793
  532SOL     OW 2125  11.450   2.734   5.596
  532SOL    HW1 2126  11.389   2.665   5.624
  532SOL    HW2 2127  11.406   2.776   5.523
  532SOL     MW 2128  11.438   2.730   5.591
  533SOL     OW 2129  11.236   3.123   6.326
  533SOL    HW1 2130  11.282   3.088   6.403
  533SOL    HW2 2131  11.157   3.071   6.321
  533SOL     MW 2132  11.232   3.113   6.335
  534SOL     OW 2133  10.946   2.901   5.021
  534SOL    HW1 2134  11.007   2.975   5.030
  534SOL    HW2 2135  11.002   2.825   5.020
  534SOL     MW 2136  10.960   2.901   5.022
  535SOL     OW 2137  10.607   1.476   6.079
  535SOL    HW1 2138  10.541   1.461   6.148
  535SOL    HW2 2139  10.624   1.569   6.083
  535SOL     MW 2140  10.601   1.485   6.088
  536SOL     OW 2141  12.599   1.212   5.369
  536SOL    HW1 2142  12.595   1.276   5.441
  536SOL    HW2 2143  12.677   1.162   5.387
  536SOL     MW 2144  12.608   1.214   5.380
  537SOL     OW 2145  10.906   2.190   5.104
  537SOL    HW1 2146  10.898   2.282   5.129
  537SOL    HW2 2147  10.864   2.185   5.020
  537SOL     MW 2148  10.900   2.200   5.097
  538SOL     OW 2149  12.226   2.093   4.231
  538SOL    HW1 2150  12.275   2.014   4.206
  538SOL    HW2 2151  12.178   2.117   4.153
  538SOL     MW 2152  12.226   2.087   4.219
  539SOL     OW 2153  12.551   2.629   6.377
  539SOL    HW1 2154  12.479   2.644   6.439
  539SOL    HW2 2155  12.613   2.698   6.395
  539SOL     MW 2156  12.550   2.639   6.386
  540SOL     OW 2157  10.249   0.436   4.478
  540SOL    HW1 2158  10.325   0.380   4.497
  540SOL    HW2 2159  10.227   0.475   4.563
  540SOL     MW 2160  10.256   0.434   4.491
  541SOL     OW 2161  11.925   1.449   6.312
  541SOL    HW1 2162  11.986   1.400   6.256
  541SOL    HW2 2163  11.970   1.530   6.331
  541SOL     MW 2164  11.938   1.453   6.307
  542SOL     OW 2165  10.783   0.374   4.453
  542SOL    HW1 2166  10.716   0.365   4.385
  542SOL    HW2 2167  10.863   0.349   4.411
  542SOL     MW 2168  10.784   0.370   4.440
  543SOL     OW 2169  11.417   1.600   4.775
  543SOL    HW1 2170  11.368   1.562   4.701
  543SOL    HW2 2171  11.349   1.628   4.835
  543SOL     MW 2172  11.403   1.598   4.773
  544SOL     OW 2173  13.148   0.137   5.487
  544SOL    HW1 2174  13.138   0.139   5.583
  544SOL    HW2 2175  13.196   0.057   5.470
  544SOL     MW 2176  13.153   0.128   5.497
  545SOL     OW 2177  13.333   0.313   6.308
  545SOL    HW1 2178  13.311   0.276   6.393
  545SOL    HW2 2179  13.292   0.399   6.308
  545SOL     MW 2180  13.326   0.319   6.318
  546SOL     OW 2181  12.509   0.154   3.432
  546SOL    HW1 2182  12.526   0.073   3.383
  546SOL    HW2 2183  12.515   0.222   3.366
  546SOL     MW 2184  12.512   0.152   3.418
  547SOL     OW 2185  11.910   2.954   3.216
  547SOL    HW1 2186  11.846   2.936   3.286
  547SOL    HW2 2187  11.941   3.041   3.235
  547SOL     MW 2188  11.906   2.962   3.227
  548SOL     OW 2189  13.279  -0.000   5.793
  548SOL    HW1 2190  13.283   0.083   5.840
  548SOL    HW2 2191  13.196   0.003   5.746
  548SOL     MW 2192  13.270   0.010   5.793
  549SOL     OW 2193  10.085   2.530   5.242
  549SOL    HW1 2194  10.039   2.610   5.215
  549SOL    HW2 2195  10.029   2.491   5.307
  549SOL     MW 2196  10.073   2.536   5.246
  550SOL     OW 2197  10.546   0.246   3.877
  550SOL    HW1 2198  10.601   0.271   3.802
  550SOL    HW2 2199  10.459   0.275   3.852
  550SOL     MW 2200  10.542   0.252   3.865
  551SOL     OW 2201  11.927   0.958   5.540
  551SOL    HW1 2202  11.948   0.960   5.446
  551SOL    HW2 2203  12.006   0.925   5.581
  551SOL     MW 2204  11.939   0.955   5.533
  552SOL     OW 2205  11.796   1.354   3.612
  552SOL    HW1 2206  11.768   1.285   3.550
  552SOL    HW2 2207  11.862   1.312   3.665
  552SOL     MW 2208  11.800   1.341   3.610
  553SOL     OW 2209  11.969   2.303   4.263
  553SOL    HW1 2210  12.047   2.289   4.319
  553SOL    HW2 2211  11.915   2.363   4.313
  553SOL     MW 2212  11.972   2.309   4.276
  554SOL     OW 2213  10.425   0.752   6.160
  554SOL    HW1 2214  10.472   0.835   6.171
  554SOL    HW2 2215  10.341   0.767   6.202
  554SOL     MW 2216  10.420   0.764   6.166
  555SOL     OW 2217  13.278   1.069   6.150
  555SOL    HW1 2218  13.294   1.025   6.234
  555SOL    HW2 2219  13.341   1.140   6.149
  555SOL     MW 2220  13.288   1.072   6.160
  556SOL     OW 2221  12.988   1.091   3.638
  556SOL    HW1 2222  13.010   1.093   3.544
  556SOL    HW2 2223  12.982   1.183   3.662
  556SOL     MW 2224  12.990   1.102   3.629
  557SOL     OW 2225  10.862   2.581   3.724
  557SOL    HW1 2226  10.942   2.527   3.727
  557SOL    HW2 2227  10.889   2.664   3.761
  557SOL     MW 2228  10.875   2.584   3.729
  558SOL     OW 2229  10.257   0.888   3.662
  558SOL    HW1 2230  10.325   0.865   3.727
  558SOL    HW2 2231  10.186   0.829   3.681
  558SOL     MW 2232  10.257   0.878   3.672
  559SOL     OW 2233  11.399   2.364   5.780
  559SOL    HW1 2234  11.472   2.310   5.815
  559SOL    HW2 2235  11.350   2.304   5.725
  559SOL     MW 2236  11.402   2.350   5.778
  560SOL     OW 2237  11.631   1.139   4.753
  560SOL    HW1 2238  11.639   1.047   4.780
  560SOL    HW2 2239  11.664   1.188   4.828
  560SOL     MW 2240  11.636   1.134   4.765
  561SOL     OW 2241  12.630   2.216   6.269
  561SOL    HW1 2242  12.588   2.236   6.185
  561SOL    HW2 2243  12.559   2.188   6.325
  561SOL     MW 2244  12.617   2.215   6.266
  562SOL     OW 2245  13.285   0.853   4.770
  562SOL    HW1 2246  13.202   0.806   4.782
  562SOL    HW2 2247  13.339   0.793   4.720
  562SOL     MW 2248  13.281   0.840   4.765
  563SOL     OW 2249  12.698   0.686   4.387
  563SOL    HW1 2250  12.734   0.623   4.324
  563SOL    HW2 2251  12.731   0.770   4.358
  563SOL     MW 2252  12.706   0.688   4.376
  564SOL     OW 2253  12.238   0.509   3.287
  564SOL    HW1 2254  12.236   0.451   3.210
  564SOL    HW2 2255  12.147   0.530   3.304
  564SOL     MW 2256  12.227   0.504   3.280
  565SOL     OW 2257  12.507   0.876   4.886
  565SOL    HW1 2258  12.513   0.781   4.868
  565SOL    HW2 2259  12.422   0.887   4.925
  565SOL     MW 2260  12.498   0.866   4.889
  566SOL     OW 2261  11.032   0.322   5.778
  566SOL    HW1 2262  11.047   0.252   5.712
  566SOL    HW2 2263  10.938   0.326   5.786
  566SOL     MW 2264  11.023   0.314   5.771
  567SOL     OW 2265  11.799   2.469   6.406
  567SOL    HW1 2266  11.824   2.551   6.362
  567SOL    HW2 2267  11.813   2.402   6.340
  567SOL     MW 2268  11.804   2.471   6.393
  568SOL     OW 2269  12.935   2.439   5.470
  568SOL    HW1 2270  13.005   2.446   5.404
  568SOL    HW2 2271  12.874   2.507   5.446
  568SOL     MW 2272  12.936   2.448   5.459
  569SOL     OW 2273  12.624   3.340   5.597
  569SOL    HW1 2274  12.683   3.388   5.655
  569SOL    HW2 2275  12.650   3.367   5.510
  569SOL     MW 2276  12.634   3.349   5.594
  570SOL     OW 2277  13.255   0.826   6.478
  570SOL    HW1 2278  13.171   0.779   6.481
  570SOL    HW2 2279  13.297   0.793   6.400
  570SOL     MW 2280  13.249   0.817   6.469
  571SOL     OW 2281  11.700   1.870   4.824
  571SOL    HW1 2282  11.632   1.887   4.758
  571SOL    HW2 2283  11.782   1.880   4.776
  571SOL     MW 2284  11.702   1.873   4.810
  572SOL     OW 2285  11.438   2.526   5.925
  572SOL    HW1 2286  11.496   2.600   5.902
  572SOL    HW2 2287  11.382   2.562   5.992
  572SOL     MW 2288  11.439   2.540   5.930
  573SOL     OW 2289  12.571   2.194   3.922
  573SOL    HW1 2290  12.562   2.120   3.861
  573SOL    HW2 2291  12.658   2.183   3.959
  573SOL     MW 2292  12.580   2.184   3.919
  574SOL     OW 2293  12.255   1.854   5.911
  574SOL    HW1 2294  12.197   1.839   5.986
  574SOL    HW2 2295  12.264   1.949   5.908
  574SOL     MW 2296  12.249   1.864   5.920
  575SOL     OW 2297  11.380   2.230   4.237
  575SOL    HW1 2298  11.334   2.226   4.321
  575SOL    HW2 2299  11.400   2.322   4.226
  575SOL     MW 2300  11.377   2.240   4.246
  576SOL     OW 2301  12.552   3.436   5.202
  576SOL    HW1 2302  12.554   3.341   5.187
  576SOL    HW2 2303  12.644   3.461   5.205
  576SOL     MW 2304  12.563   3.428   5.201
  577SOL     OW 2305  10.456   0.716   4.521
  577SOL    HW1 2306  10.471   0.771   4.444
  577SOL    HW2 2307  10.363   0.695   4.516
  577SOL     MW 2308  10.447   0.720   4.511
  578SOL     OW 2309  10.789   2.911   3.375
  578SOL    HW1 2310  10.747   2.878   3.295
  578SOL    HW2 2311  10.718   2.948   3.425
  578SOL     MW 2312  10.776   2.912   3.371
  579SOL     OW 2313  12.141   2.834   5.587
  579SOL    HW1 2314  12.222   2.799   5.549
  579SOL    HW2 2315  12.154   2.928   5.589
  579SOL     MW 2316  12.152   2.841   5.582
  580SOL     OW 2317  10.366   3.185   5.990
  580SOL    HW1 2318  10.279   3.147   5.970
  580SOL    HW2 2319  10.366   3.195   6.084
  580SOL     MW 2320  10.355   3.181   5.998
  581SOL     OW 2321  13.248   0.465   4.090
  581SOL    HW1 2322  13.153   0.461   4.076
  581SOL    HW2 2323  13.264   0.557   4.109
  581SOL     MW 2324  13.238   0.475   4.090
  582SOL     OW 2325  11.537   0.481   5.030
  582SOL    HW1 2326  11.499   0.510   4.946
  582SOL    HW2 2327  11.583   0.558   5.062
  582SOL     MW 2328  11.537   0.494   5.023
  583SOL     OW 2329  11.247   0.119   5.524
  583SOL    HW1 2330  11.294   0.085   5.600
  583SOL    HW2 2331  11.162   0.145   5.559
  583SOL     MW 2332  11.242   0.118   5.538
  584SOL     OW 2333  11.696   1.048   5.291
  584SOL    HW1 2334  11.751   1.095   5.228
  584SOL    HW2 2335  11.757   0.997   5.342
  584SOL     MW 2336  11.710   1.048   5.290
  585SOL     OW 2337  12.340   2.396   5.143
  585SOL    HW1 2338  12.246   2.411   5.153
  585SOL    HW2 2339  12.347   2.329   5.076
  585SOL     MW 2340  12.330   2.390   5.136
  586SOL     OW 2341  10.574   2.912   4.958
  586SOL    HW1 2342  10.645   2.848   4.970
  586SOL    HW2 2343  10.618   2.995   4.947
  586SOL     MW 2344  10.588   2.914   4.958
  587SOL     OW 2345  10.935   3.223   3.790
  587SOL    HW1 2346  10.993   3.264   3.855
  587SOL    HW2 2347  10.943   3.130   3.807
  587SOL     MW 2348  10.943   3.217   3.800
  588SOL     OW 2349  10.507   0.918   5.040
  588SOL    HW1 2350  10.443   0.851   5.012
  588SOL    HW2 2351  10.464   1.000   5.022
  588SOL     MW 2352  10.494   0.919   5.035
  589SOL     OW 2353  11.530   3.461   3.144
  589SOL    HW1 2354  11.524   3.455   3.048
  589SOL    HW2 2355  11.623   3.454   3.162
  589SOL     MW 2356  11.540   3.460   3.134
  590SOL     OW 2357  11.538   3.088   3.553
  590SOL    HW1 2358  11.537   3.162   3.615
  590SOL    HW2 2359  11.588   3.120   3.480
  590SOL     MW 2360  11.544   3.101   3.552
  591SOL     OW 2361  10.247   1.015   5.443
  591SOL    HW1 2362  10.212   1.098   5.410
  591SOL    HW2 2363  10.172   0.973   5.484
  591SOL     MW 2364  10.234   1.020   5.444
  592SOL     OW 2365  12.733   2.568   5.142
  592SOL    HW1 2366  12.643   2.589   5.169
  592SOL    HW2 2367  12.764   2.510   5.210
  592SOL     MW 2368  12.725   2.564   5.153
  593SOL     OW 2369  11.938   2.026   3.216
  593SOL    HW1 2370  11.993   1.983   3.149
  593SOL    HW2 2371  11.909   1.954   3.271
  593SOL     MW 2372  11.941   2.012   3.214
  594SOL     OW 2373  13.243   1.418   6.212
  594SOL    HW1 2374  13.292   1.338   6.229
  594SOL    HW2 2375  13.162   1.388   6.171
  594SOL     MW 2376  13.239   1.405   6.209
  595SOL     OW 2377  11.043   2.299   4.771
  595SOL    HW1 2378  11.064   2.254   4.853
  595SOL    HW2 2379  10.955   2.332   4.784
  595SOL     MW 2380  11.035   2.298   4.782
  596SOL     OW 2381  10.355   0.925   3.404
  596SOL    HW1 2382  10.446   0.914   3.432
  596SOL    HW2 2383  10.311   0.847   3.434
  596SOL     MW 2384  10.361   0.915   3.411
  597SOL     OW 2385  11.532   1.700   3.639
  597SOL    HW1 2386  11.593   1.731   3.706
  597SOL    HW2 2387  11.446   1.720   3.673
  597SOL     MW 2388  11.529   1.706   3.651
  598SOL     OW 2389  11.531   3.217   3.233
  598SOL    HW1 2390  11.500   3.138   3.279
  598SOL    HW2 2391  11.468   3.284   3.255
  598SOL     MW 2392  11.520   3.215   3.241
  599SOL     OW 2393  10.241   2.777   5.176
  599SOL    HW1 2394  10.285   2.749   5.096
  599SOL    HW2 2395  10.299   2.842   5.213
  599SOL     MW 2396  10.253   2.782   5.171
  600SOL     OW 2397  13.207   0.165   4.610
  600SOL    HW1 2398  13.235   0.074   4.620
  600SOL    HW2 2399  13.270   0.202   4.548
  600SOL     MW 2400  13.218   0.159   4.604
  601SOL     OW 2401  12.625   2.126   4.182
  601SOL    HW1 2402  12.615   2.084   4.268
  601SOL    HW2 2403  12.558   2.085   4.129
  601SOL     MW 2404  12.616   2.116   4.187
  602SOL     OW 2405  11.965   2.160   3.460
  602SOL    HW1 2406  11.897   2.197   3.517
  602SOL    HW2 2407  12.045   2.205   3.487
  602SOL     MW 2408  11.966   2.170   3.470
  603SOL     OW 2409  10.164   0.992   4.544
  603SOL    HW1 2410  10.160   0.918   4.606
  603SOL    HW2 2411  10.092   1.048   4.570
  603SOL     MW 2412  10.155   0.989   4.555
  604SOL     OW 2413  10.526   2.963   6.141
  604SOL    HW1 2414  10.463   2.975   6.212
  604SOL    HW2 2415  10.491   3.014   6.069
  604SOL     MW 2416  10.514   2.971   6.141
  605SOL     OW 2417  10.055   0.636   6.230
  605SOL    HW1 2418  10.109   0.712   6.207
  605SOL    HW2 2419  10.089   0.566   6.176
  605SOL     MW 2420  10.065   0.637   6.221
  606SOL     OW 2421  11.094   1.877   3.578
  606SOL    HW1 2422  11.081   1.788   3.543
  606SOL    HW2 2423  11.085   1.934   3.503
  606SOL     MW 2424  11.092   1.873   3.565
  607SOL     OW 2425  13.335   2.858   3.647
  607SOL    HW1 2426  13.299   2.790   3.706
  607SOL    HW2 2427  13.274   2.930   3.654
  607SOL     MW 2428  13.323   2.858   3.655
  608SOL     OW 2429  10.502   1.975   6.445
  608SOL    HW1 2430  10.497   2.043   6.513
  608SOL    HW2 2431  10.546   1.902   6.488
  608SOL     MW 2432  10.507   1.975   6.459
  609SOL     OW 2433  11.284   1.136   4.268
  609SOL    HW1 2434  11.305   1.060   4.323
  609SOL    HW2 2435  11.194   1.157   4.290
  609SOL     MW 2436  11.276   1.129   4.278
  610SOL     OW 2437  12.476   3.196   4.233
  610SOL    HW1 2438  12.528   3.153   4.164
  610SOL    HW2 2439  12.493   3.288   4.221
  610SOL     MW 2440  12.484   3.201   4.223
  611SOL     OW 2441  12.331   1.987   5.110
  611SOL    HW1 2442  12.302   2.058   5.052
  611SOL    HW2 2443  12.303   1.908   5.065
  611SOL     MW 2444  12.324   1.986   5.097
  612SOL     OW 2445  12.068   1.189   5.531
  612SOL    HW1 2446  12.099   1.250   5.598
  612SOL    HW2 2447  12.120   1.111   5.545
  612SOL     MW 2448  12.078   1.187   5.541
  613SOL     OW 2449  12.192   0.487   4.433
  613SOL    HW1 2450  12.148   0.425   4.374
  613SOL    HW2 2451  12.283   0.483   4.408
  613SOL     MW 2452  12.197   0.479   4.423
  614SOL     OW 2453  12.055   1.598   4.939
  614SOL    HW1 2454  11.970   1.553   4.935
  614SOL    HW2 2455  12.033   1.690   4.935
  614SOL     MW 2456  12.042   1.603   4.938
  615SOL     OW 2457  11.112   1.921   4.354
  615SOL    HW1 2458  11.043   1.938   4.289
  615SOL    HW2 2459  11.078   1.957   4.435
  615SOL     MW 2460  11.100   1.928   4.356
  616SOL     OW 2461  11.713   0.389   4.826
  616SOL    HW1 2462  11.634   0.431   4.791
  616SOL    HW2 2463  11.694   0.296   4.824
  616SOL     MW 2464  11.701   0.383   4.821
  617SOL     OW 2465  12.761   2.368   6.149
  617SOL    HW1 2466  12.781   2.392   6.240
  617SOL    HW2 2467  12.840   2.386   6.102
  617SOL     MW 2468  12.773   2.373   6.155
  618SOL     OW 2469  11.549   1.684   3.989
  618SOL    HW1 2470  11.642   1.688   3.968
  618SOL    HW2 2471  11.511   1.634   3.918
  618SOL     MW 2472  11.556   1.678   3.978
  619SOL     OW 2473  10.930   1.019   3.380
  619SOL    HW1 2474  10.935   0.989   3.289
  619SOL    HW2 2475  10.876   1.096   3.377
  619SOL     MW 2476  10.924   1.024   3.369
  620SOL     OW 2477  11.108   2.670   4.755
  620SOL    HW1 2478  11.157   2.611   4.697
  620SOL    HW2 2479  11.135   2.757   4.729
  620SOL     MW 2480  11.117   2.673   4.745
  621SOL     OW 2481  13.233   1.916   5.114
  621SOL    HW1 2482  13.140   1.898   5.132
  621SOL    HW2 2483  13.255   1.855   5.045
  621SOL     MW 2484  13.224   1.906   5.108
  622SOL     OW 2485  12.842   0.791   5.687
  622SOL    HW1 2486  12.918   0.744   5.725
  622SOL    HW2 2487  12.868   0.809   5.598
  622SOL     MW 2488  12.855   0.787   5.681
  623SOL     OW 2489  11.476   0.426   5.837
  623SOL    HW1 2490  11.409   0.480   5.881
  623SOL    HW2 2491  11.468   0.448   5.746
  623SOL     MW 2492  11.467   0.435   5.832
  624SOL     OW 2493  11.172   2.342   6.018
  624SOL    HW1 2494  11.153   2.285   5.943
  624SOL    HW2 2495  11.217   2.416   5.980
  624SOL     MW 2496  11.175   2.344   6.004
  625SOL     OW 2497  12.798   0.070   4.684
  625SOL    HW1 2498  12.822   0.142   4.624
  625SOL    HW2 2499  12.709   0.049   4.661
  625SOL     MW 2500  12.791   0.076   4.674
  626SOL     OW 2501  12.513   1.607   4.688
  626SOL    HW1 2502  12.447   1.641   4.626
  626SOL    HW2 2503  12.496   1.654   4.768
  626SOL     MW 2504  12.503   1.617   4.690
  627SOL     OW 2505  10.666   3.218   3.662
  627SOL    HW1 2506  10.761   3.203   3.656
  627SOL    HW2 2507  10.654   3.302   3.619
  627SOL     MW 2508  10.677   3.226   3.656
  628SOL     OW 2509  10.586   0.598   3.575
  628SOL    HW1 2510  10.627   0.685   3.573
  628SOL    HW2 2511  10.526   0.601   3.648
  628SOL     MW 2512  10.584   0.609   3.583
  629SOL     OW 2513  13.208   1.865   3.689
  629SOL    HW1 2514  13.272   1.937   3.690
  629SOL    HW2 2515  13.261   1.786   3.690
  629SOL     MW 2516  13.222   1.865   3.689
  630SOL     OW 2517  12.476   1.125   4.374
  630SOL    HW1 2518  12.540   1.130   4.302
  630SOL    HW2 2519  12.502   1.049   4.424
  630SOL     MW 2520  12.487   1.117   4.371
  631SOL     OW 2521  10.585   2.483   3.637
  631SOL    HW1 2522  10.617   2.546   3.702
  631SOL    HW2 2523  10.634   2.404   3.655
  631SOL     MW 2524  10.595   2.481   3.647
  632SOL     OW 2525  12.868   3.392   3.612
  632SOL    HW1 2526  12.819   3.324   3.660
  632SOL    HW2 2527  12.804   3.460   3.597
  632SOL     MW 2528  12.854   3.392   3.616
  633SOL     OW 2529  12.326   1.982   5.358
  633SOL    HW1 2530  12.247   1.979   5.413
  633SOL    HW2 2531  12.343   1.891   5.336
  633SOL     MW 2532  12.318   1.971   5.362
  634SOL     OW 2533  11.169   1.040   3.982
  634SOL    HW1 2534  11.165   1.059   4.077
  634SOL    HW2 2535  11.202   0.951   3.977
  634SOL     MW 2536  11.173   1.032   3.993
  635SOL     OW 2537  12.117   1.621   3.326
  635SOL    HW1 2538  12.089   1.679   3.397
  635SOL    HW2 2539  12.055   1.550   3.328
  635SOL     MW 2540  12.106   1.620   3.335
  636SOL     OW 2541  11.940   2.490   3.404
  636SOL    HW1 2542  11.893   2.488   3.320
  636SOL    HW2 2543  12.007   2.423   3.395
  636SOL     MW 2544  11.943   2.482   3.392
  637SOL     OW 2545  12.373   1.178   5.004
  637SOL    HW1 2546  12.321   1.225   4.938
  637SOL    HW2 2547  12.352   1.087   4.990
  637SOL     MW 2548  12.365   1.173   4.994
  638SOL     OW 2549  13.053   0.484   3.329
  638SOL    HW1 2550  13.136   0.477   3.378
  638SOL    HW2 2551  13.070   0.553   3.265
  638SOL     MW 2552  13.065   0.491   3.327
  639SOL     OW 2553  11.765   2.188   3.342
  639SOL    HW1 2554  11.728   2.099   3.352
  639SOL    HW2 2555  11.697   2.245   3.375
  639SOL     MW 2556  11.752   2.184   3.347
  640SOL     OW 2557  11.128   3.106   4.267
  640SOL    HW1 2558  11.146   3.185   4.216
  640SOL    HW2 2559  11.034   3.097   4.265
  640SOL     MW 2560  11.119   3.115   4.260
  641SOL     OW 2561  12.815   1.503   3.539
  641SOL    HW1 2562  12.890   1.495   3.479
  641SOL    HW2 2563  12.777   1.587   3.518
  641SOL     MW 2564  12.819   1.512   3.529
  642SOL     OW 2565  11.797   3.295   4.871
  642SOL    HW1 2566  11.746   3.228   4.917
  642SOL    HW2 2567  11.878   3.251   4.849
  642SOL     MW 2568  11.801   3.282   4.874
  643SOL     OW 2569  10.673   1.640   3.806
  643SOL    HW1 2570  10.756   1.609   3.844
  643SOL    HW2 2571  10.625   1.675   3.880
  643SOL     MW 2572  10.677   1.640   3.820
  644SOL     OW 2573  12.882   1.741   6.087
  644SOL    HW1 2574  12.942   1.692   6.029
  644SOL    HW2 2575  12.898   1.832   6.067
  644SOL     MW 2576  12.891   1.745   6.077
  645SOL     OW 2577  10.568   1.922   4.739
  645SOL    HW1 2578  10.548   1.914   4.833
  645SOL    HW2 2579  10.587   2.014   4.727
  645SOL     MW 2580  10.568   1.932   4.749
  646SOL     OW 2581  10.681   3.144   5.153
  646SOL    HW1 2582  10.738   3.078   5.112
  646SOL    HW2 2583  10.607   3.094   5.185
  646SOL     MW 2584  10.679   3.129   5.152
  647SOL     OW 2585  10.943   0.888   4.702
  647SOL    HW1 2586  10.911   0.979   4.695
  647SOL    HW2 2587  10.889   0.849   4.770
  647SOL     MW 2588  10.933   0.894   4.709
  648SOL     OW 2589  10.941   2.236   5.443
  648SOL    HW1 2590  10.872   2.192   5.494
  648SOL    HW2 2591  10.981   2.296   5.505
  648SOL     MW 2592  10.937   2.238   5.457
  649SOL     OW 2593  12.606   2.097   5.763
  649SOL    HW1 2594  12.523   2.096   5.812
  649SOL    HW2 2595  12.662   2.038   5.811
  649SOL     MW 2596  12.603   2.090   5.775
  650SOL     OW 2597  11.205   1.280   3.930
  650SOL    HW1 2598  11.146   1.266   4.005
  650SOL    HW2 2599  11.146   1.290   3.856
  650SOL     MW 2600  11.190   1.279   3.931
  651SOL     OW 2601  11.413   2.250   6.466
  651SOL    HW1 2602  11.368   2.236   6.382
  651SOL    HW2 2603  11.385   2.337   6.493
  651SOL     MW 2604  11.404   2.259   6.459
  652SOL     OW 2605  12.334   2.901   6.030
  652SOL    HW1 2606  12.316   2.986   6.074
  652SOL    HW2 2607  12.290   2.837   6.085
  652SOL     MW 2608  12.326   2.904   6.042
  653SOL     OW 2609  11.647   1.513   3.691
  653SOL    HW1 2610  11.737   1.546   3.703
  653SOL    HW2 2611  11.618   1.494   3.780
  653SOL     MW 2612  11.655   1.515   3.703
  654SOL     OW 2613  10.538   0.429   4.607
  654SOL    HW1 2614  10.458   0.454   4.655
  654SOL    HW2 2615  10.609   0.447   4.667
  654SOL     MW 2616  10.536   0.434   4.620
  655SOL     OW 2617  10.763   1.923   6.510
  655SOL    HW1 2618  10.825   1.980   6.464
  655SOL    HW2 2619  10.755   1.847   6.454
  655SOL     MW 2620  10.770   1.921   6.498
  656SOL     OW 2621  12.111   2.682   4.677
  656SOL    HW1 2622  12.165   2.663   4.599
  656SOL    HW2 2623  12.024   2.695   4.642
  656SOL     MW 2624  12.108   2.681   4.663
  657SOL     OW 2625  10.795   1.487   3.415
  657SOL    HW1 2626  10.819   1.460   3.504
  657SOL    HW2 2627  10.717   1.436   3.396
  657SOL     MW 2628  10.788   1.477   3.423
  658SOL     OW 2629  10.637   1.767   3.202
  658SOL    HW1 2630  10.686   1.827   3.259
  658SOL    HW2 2631  10.668   1.681   3.225
  658SOL     MW 2632  10.646   1.764   3.211
  659SOL     OW 2633  12.132   1.063   5.293
  659SOL    HW1 2634  12.144   1.157   5.314
  659SOL    HW2 2635  12.041   1.056   5.271
  659SOL     MW 2636  12.123   1.074   5.293
  660SOL     OW 2637  11.044   2.987   5.748
  660SOL    HW1 2638  11.086   2.941   5.675
  660SOL    HW2 2639  11.045   3.078   5.723
  660SOL     MW 2640  11.049   2.992   5.736
  661SOL     OW 2641  11.053   0.531   6.446
  661SOL    HW1 2642  10.974   0.579   6.420
  661SOL    HW2 2643  11.067   0.469   6.376
  661SOL     MW 2644  11.045   0.530   6.435
  662SOL     OW 2645  10.244   2.794   4.119
  662SOL    HW1 2646  10.262   2.793   4.213
  662SOL    HW2 2647  10.294   2.721   4.085
  662SOL     MW 2648  10.252   2.785   4.126
  663SOL     OW 2649  10.103   1.653   4.428
  663SOL    HW1 2650  10.127   1.620   4.341
  663SOL    HW2 2651  10.186   1.674   4.469
  663SOL     MW 2652  10.116   1.652   4.423
  664SOL     OW 2653  12.435   3.378   5.006
  664SOL    HW1 2654  12.399   3.461   5.041
  664SOL    HW2 2655  12.509   3.406   4.952
  664SOL     MW 2656  12.440   3.392   5.004
  665SOL     OW 2657  13.241   2.637   6.510
  665SOL    HW1 2658  13.267   2.555   6.466
  665SOL    HW2 2659  13.240   2.701   6.440
  665SOL     MW 2660  13.244   2.635   6.496
  666SOL     OW 2661  12.266   2.880   4.041
  666SOL    HW1 2662  12.212   2.852   3.966
  666SOL    HW2 2663  12.351   2.844   4.022
  666SOL     MW 2664  12.269   2.872   4.029
  667SOL     OW 2665  11.169   2.499   4.886
  667SOL    HW1 2666  11.203   2.457   4.966
  667SOL    HW2 2667  11.075   2.485   4.891
  667SOL     MW 2668  11.162   2.492   4.896
  668SOL     OW 2669  12.806   2.279   4.429
  668SOL    HW1 2670  12.739   2.348   4.424
  668SOL    HW2 2671  12.865   2.310   4.497
  668SOL     MW 2672  12.805   2.291   4.437
  669SOL     OW 2673  12.308   2.327   4.009
  669SOL    HW1 2674  12.301   2.292   4.099
  669SOL    HW2 2675  12.219   2.329   3.977
  669SOL     MW 2676  12.297   2.323   4.016
  670SOL     OW 2677  11.802   2.163   5.186
  670SOL    HW1 2678  11.842   2.225   5.124
  670SOL    HW2 2679  11.710   2.167   5.166
  670SOL     MW 2680  11.796   2.171   5.176
  671SOL     OW 2681  11.866   1.107   6.024
  671SOL    HW1 2682  11.919   1.081   5.949
  671SOL    HW2 2683  11.800   1.166   5.988
  671SOL     MW 2684  11.864   1.111   6.011
  672SOL     OW 2685  10.095   1.416   3.898
  672SOL    HW1 2686  10.013   1.425   3.847
  672SOL    HW2 2687  10.163   1.438   3.837
  672SOL     MW 2688  10.093   1.420   3.885
  673SOL     OW 2689  12.480   2.949   4.552
  673SOL    HW1 2690  12.481   2.934   4.457
  673SOL    HW2 2691  12.439   3.033   4.562
  673SOL     MW 2692  12.476   2.957   4.542
  674SOL     OW 2693  12.464   1.941   4.860
  674SOL    HW1 2694  12.474   2.033   4.883
  674SOL    HW2 2695  12.526   1.895   4.916
  674SOL     MW 2696  12.473   1.947   4.869
  675SOL     OW 2697  10.093   2.320   5.658
  675SOL    HW1 2698  10.065   2.333   5.749
  675SOL    HW2 2699  10.188   2.321   5.662
  675SOL     MW 2700  10.101   2.322   5.670
  676SOL     OW 2701  11.030   0.716   5.523
  676SOL    HW1 2702  11.068   0.782   5.464
  676SOL    HW2 2703  10.936   0.733   5.520
  676SOL     MW 2704  11.023   0.726   5.515
  677SOL     OW 2705  10.821   1.531   4.127
  677SOL    HW1 2706  10.781   1.604   4.079
  677SOL    HW2 2707  10.756   1.462   4.124
  677SOL     MW 2708  10.809   1.532   4.121
  678SOL     OW 2709  11.837   2.535   5.818
  678SOL    HW1 2710  11.875   2.494   5.896
  678SOL    HW2 2711  11.908   2.537   5.755
  678SOL     MW 2712  11.850   2.530   5.820
  679SOL     OW 2713  12.242   0.577   4.133
  679SOL    HW1 2714  12.206   0.601   4.047
  679SOL    HW2 2715  12.168   0.541   4.180
  679SOL     MW 2716  12.229   0.576   4.128
  680SOL     OW 2717  12.723   2.728   5.425
  680SOL    HW1 2718  12.766   2.788   5.364
  680SOL    HW2 2719  12.667   2.675   5.370
  680SOL     MW 2720  12.722   2.729   5.411
  681SOL     OW 2721  11.421   0.284   6.359
  681SOL    HW1 2722  11.374   0.306   6.439
  681SOL    HW2 2723  11.378   0.335   6.291
  681SOL     MW 2724  11.410   0.293   6.360
  682SOL     OW 2725  11.952   0.287   4.654
  682SOL    HW1 2726  11.856   0.287   4.667
  682SOL    HW2 2727  11.975   0.379   4.655
  682SOL     MW 2728  11.943   0.298   4.656
  683SOL     OW 2729  11.882   0.892   4.726
  683SOL    HW1 2730  11.823   0.903   4.801
  683SOL    HW2 2731  11.923   0.977   4.716
  683SOL     MW 2732  11.880   0.903   4.734
  684SOL     OW 2733  12.580   0.061   5.329
  684SOL    HW1 2734  12.543  -0.000   5.393
  684SOL    HW2 2735  12.581   0.012   5.248
  684SOL     MW 2736  12.576   0.048   5.327
  685SOL     OW 2737  12.792   3.374   3.961
  685SOL    HW1 2738  12.764   3.438   3.895
  685SOL    HW2 2739  12.716   3.318   3.973
  685SOL     MW 2740  12.779   3.375   3.955
  686SOL     OW 2741  11.880   0.627   4.926
  686SOL    HW1 2742  11.825   0.680   4.867
  686SOL    HW2 2743  11.843   0.540   4.921
  686SOL     MW 2744  11.868   0.623   4.918
  687SOL     OW 2745  11.431   1.892   5.684
  687SOL    HW1 2746  11.380   1.854   5.756
  687SOL    HW2 2747  11.498   1.943   5.728
  687SOL     MW 2748  11.433   1.893   5.698
  688SOL     OW 2749  11.877   1.716   3.504
  688SOL    HW1 2750  11.947   1.739   3.565
  688SOL    HW2 2751  11.855   1.626   3.526
  688SOL     MW 2752  11.883   1.708   3.514
  689SOL     OW 2753  10.256   0.803   4.271
  689SOL    HW1 2754  10.265   0.839   4.182
  689SOL    HW2 2755  10.197   0.729   4.260
  689SOL     MW 2756  10.250   0.798   4.259
  690SOL     OW 2757  13.299   1.796   5.472
  690SOL    HW1 2758  13.293   1.727   5.405
  690SOL    HW2 2759  13.223   1.782   5.527
  690SOL     MW 2760  13.289   1.786   5.470
  691SOL     OW 2761  11.372   2.728   3.343
  691SOL    HW1 2762  11.415   2.815   3.347
  691SOL    HW2 2763  11.332   2.727   3.257
  691SOL     MW 2764  11.373   2.739   3.334
  692SOL     OW 2765  10.548   2.393   3.439
  692SOL    HW1 2766  10.550   2.304   3.476
  692SOL    HW2 2767  10.554   2.380   3.346
  692SOL     MW 2768  10.549   2.381   3.433
  693SOL     OW 2769  12.946   2.488   3.671
  693SOL    HW1 2770  12.974   2.562   3.616
  693SOL    HW2 2771  12.855   2.475   3.647
  693SOL     MW 2772  12.939   2.496   3.661
  694SOL     OW 2773  10.772   3.463   3.875
  694SOL    HW1 2774  10.795   3.390   3.818
  694SOL    HW2 2775  10.804   3.436   3.961
  694SOL     MW 2776  10.778   3.451   3.878
  695SOL     OW 2777  11.523   0.374   3.239
  695SOL    HW1 2778  11.555   0.317   3.167
  695SOL    HW2 2779  11.565   0.338   3.316
  695SOL     MW 2780  11.532   0.363   3.239
  696SOL     OW 2781  12.418   0.573   3.770
  696SOL    HW1 2782  12.513   0.585   3.781
  696SOL    HW2 2783  12.406   0.479   3.767
  696SOL     MW 2784  12.429   0.564   3.771
  697SOL     OW 2785  12.871   2.855   5.664
  697SOL    HW1 2786  12.967   2.868   5.661
  697SOL    HW2 2787  12.851   2.803   5.587
  697SOL     MW 2788  12.880   2.851   5.655
  698SOL     OW 2789  10.342   0.954   4.723
  698SOL    HW1 2790  10.377   0.909   4.800
  698SOL    HW2 2791  10.388   0.915   4.650
  698SOL     MW 2792  10.352   0.944   4.724
  699SOL     OW 2793  11.036   3.461   4.064
  699SOL    HW1 2794  11.000   3.373   4.046
  699SOL    HW2 2795  11.128   3.445   4.082
  699SOL     MW 2796  11.043   3.448   4.063
  700SOL     OW 2797  10.687   0.701   4.165
  700SOL    HW1 2798  10.623   0.761   4.125
  700SOL    HW2 2799  10.651   0.615   4.151
  700SOL     MW 2800  10.675   0.698   4.159
  701SOL     OW 2801  11.419   3.156   5.622
  701SOL    HW1 2802  11.429   3.151   5.526
  701SOL    HW2 2803  11.466   3.235   5.646
  701SOL     MW 2804  11.426   3.165   5.613
  702SOL     OW 2805  12.553   0.236   3.697
  702SOL    HW1 2806  12.554   0.332   3.699
  702SOL    HW2 2807  12.479   0.214   3.641
  702SOL     MW 2808  12.545   0.245   3.691
  703SOL     OW 2809  12.657   3.396   3.445
  703SOL    HW1 2810  12.727   3.432   3.389
  703SOL    HW2 2811  12.587   3.460   3.438
  703SOL     MW 2812  12.657   3.408   3.437
  704SOL     OW 2813  11.939   0.489   5.636
  704SOL    HW1 2814  11.925   0.476   5.730
  704SOL    HW2 2815  12.029   0.521   5.630
  704SOL     MW 2816  11.948   0.491   5.647
  705SOL     OW 2817  10.251   0.961   6.489
  705SOL    HW1 2818  10.299   0.881   6.511
  705SOL    HW2 2819  10.169   0.930   6.452
  705SOL     MW 2820  10.247   0.948   6.487
  706SOL     OW 2821  11.451   0.086   3.931
  706SOL    HW1 2822  11.496   0.099   3.846
  706SOL    HW2 2823  11.359   0.092   3.910
  706SOL     MW 2824  11.446   0.088   3.918
  707SOL     OW 2825  11.208   0.165   4.801
  707SOL    HW1 2826  11.304   0.166   4.809
  707SOL    HW2 2827  11.177   0.215   4.875
  707SOL     MW 2828  11.216   0.171   4.811
  708SOL     OW 2829  10.756   2.429   5.408
  708SOL    HW1 2830  10.786   2.467   5.491
  708SOL    HW2 2831  10.672   2.470   5.392
  708SOL     MW 2832  10.750   2.439   5.416
  709SOL     OW 2833  10.970   0.461   5.522
  709SOL    HW1 2834  10.920   0.521   5.579
  709SOL    HW2 2835  11.059   0.467   5.555
  709SOL     MW 2836  10.974   0.469   5.533
  710SOL     OW 2837  12.769   1.141   4.268
  710SOL    HW1 2838  12.785   1.047   4.252
  710SOL    HW2 2839  12.806   1.184   4.192
  710SOL     MW 2840  12.775   1.135   4.257
  711SOL     OW 2841  12.814   2.520   4.649
  711SOL    HW1 2842  12.799   2.465   4.726
  711SOL    HW2 2843  12.746   2.494   4.588
  711SOL     MW 2844  12.804   2.510   4.651
  712SOL     OW 2845  13.057   1.301   3.491
  712SOL    HW1 2846  12.982   1.301   3.430
  712SOL    HW2 2847  13.087   1.392   3.491
  712SOL     MW 2848  13.051   1.312   3.484
  713SOL     OW 2849  13.222   2.824   4.529
  713SOL    HW1 2850  13.198   2.889   4.595
  713SOL    HW2 2851  13.257   2.751   4.580
  713SOL     MW 2852  13.224   2.823   4.543
  714SOL     OW 2853  11.482   0.294   4.126
  714SOL    HW1 2854  11.539   0.352   4.075
  714SOL    HW2 2855  11.540   0.253   4.189
  714SOL     MW 2856  11.496   0.296   4.127
  715SOL     OW 2857  12.923   2.949   4.830
  715SOL    HW1 2858  12.849   2.924   4.773
  715SOL    HW2 2859  12.998   2.905   4.792
  715SOL     MW 2860  12.922   2.941   4.818
  716SOL     OW 2861  10.618   2.176   4.337
  716SOL    HW1 2862  10.573   2.161   4.253
  716SOL    HW2 2863  10.632   2.270   4.340
  716SOL     MW 2864  10.614   2.185   4.327
  717SOL     OW 2865  11.625   2.406   3.942
  717SOL    HW1 2866  11.635   2.501   3.946
  717SOL    HW2 2867  11.712   2.372   3.952
  717SOL     MW 2868  11.636   2.413   3.944
  718SOL     OW 2869  12.879   2.846   5.131
  718SOL    HW1 2870  12.867   2.750   5.126
  718SOL    HW2 2871  12.855   2.877   5.045
  718SOL     MW 2872  12.875   2.838   5.121
  719SOL     OW 2873  11.788   1.105   3.676
  719SOL    HW1 2874  11.741   1.039   3.624
  719SOL    HW2 2875  11.878   1.079   3.673
  719SOL     MW 2876  11.793   1.094   3.669
  720SOL     OW 2877  12.315   2.247   5.748
  720SOL    HW1 2878  12.337   2.294   5.829
  720SOL    HW2 2879  12.261   2.174   5.778
  720SOL     MW 2880  12.311   2.244   5.762
  721SOL     OW 2881  12.922   1.608   4.700
  721SOL    HW1 2882  12.880   1.537   4.650
  721SOL    HW2 2883  12.863   1.681   4.691
  721SOL     MW 2884  12.910   1.608   4.693
  722SOL     OW 2885  12.690   0.078   6.190
  722SOL    HW1 2886  12.732   0.142   6.248
  722SOL    HW2 2887  12.761   0.024   6.159
  722SOL     MW 2888  12.703   0.080   6.194
  723SOL     OW 2889  11.066   0.386   3.317
  723SOL    HW1 2890  11.037   0.351   3.402
  723SOL    HW2 2891  11.064   0.480   3.329
  723SOL     MW 2892  11.062   0.393   3.329
  724SOL     OW 2893  11.534   2.322   5.604
  724SOL    HW1 2894  11.484   2.401   5.579
  724SOL    HW2 2895  11.519   2.261   5.534
  724SOL     MW 2896  11.526   2.325   5.593
  725SOL     OW 2897  12.301   0.150   6.003
  725SOL    HW1 2898  12.341   0.193   5.926
  725SOL    HW2 2899  12.233   0.211   6.030
  725SOL     MW 2900  12.298   0.163   5.996
  726SOL     OW 2901  12.346   0.174   5.213
  726SOL    HW1 2902  12.300   0.091   5.229
  726SOL    HW2 2903  12.294   0.239   5.259
  726SOL     MW 2904  12.334   0.172   5.221
  727SOL     OW 2905  12.289   1.579   3.808
  727SOL    HW1 2906  12.246   1.656   3.770
  727SOL    HW2 2907  12.273   1.510   3.744
  727SOL     MW 2908  12.282   1.580   3.796
  728SOL     OW 2909  12.276   0.597   5.147
  728SOL    HW1 2910  12.254   0.644   5.228
  728SOL    HW2 2911  12.239   0.651   5.078
  728SOL     MW 2912  12.269   0.609   5.149
  729SOL     OW 2913  13.170   2.759   4.084
  729SOL    HW1 2914  13.216   2.790   4.005
  729SOL    HW2 2915  13.099   2.820   4.095
  729SOL     MW 2916  13.167   2.770   4.076
  730SOL     OW 2917  10.262   0.586   3.202
  730SOL    HW1 2918  10.253   0.627   3.115
  730SOL    HW2 2919  10.173   0.562   3.225
  730SOL     MW 2920  10.250   0.588   3.194
  731SOL     OW 2921  12.767   2.695   3.262
  731SOL    HW1 2922  12.686   2.664   3.304
  731SOL    HW2 2923  12.818   2.616   3.247
  731SOL     MW 2924  12.763   2.682   3.266
  732SOL     OW 2925  10.500   1.281   5.880
  732SOL    HW1 2926  10.413   1.264   5.843
  732SOL    HW2 2927  10.485   1.345   5.949
  732SOL     MW 2928  10.488   1.287   5.884
  733SOL     OW 2929  11.937   0.624   6.183
  733SOL    HW1 2930  12.024   0.646   6.150
  733SOL    HW2 2931  11.890   0.591   6.108
  733SOL     MW 2932  11.942   0.623   6.170
  734SOL     OW 2933  10.074   2.921   5.293
  734SOL    HW1 2934  10.126   2.862   5.348
  734SOL    HW2 2935  10.009   2.864   5.253
  734SOL     MW 2936  10.073   2.907   5.295
  735SOL     OW 2937  10.049   3.048   4.133
  735SOL    HW1 2938  10.055   2.953   4.122
  735SOL    HW2 2939  10.123   3.082   4.085
  735SOL     MW 2940  10.059   3.041   4.126
  736SOL     OW 2941  10.022   1.667   4.729
  736SOL    HW1 2942  10.024   1.686   4.634
  736SOL    HW2 2943  10.010   1.752   4.769
  736SOL     MW 2944  10.021   1.680   4.722
  737SOL     OW 2945  13.003   0.666   6.298
  737SOL    HW1 2946  12.910   0.643   6.291
  737SOL    HW2 2947  13.013   0.743   6.244
  737SOL     MW 2948  12.993   0.672   6.291
  738SOL     OW 2949  11.679   2.829   3.430
  738SOL    HW1 2950  11.689   2.792   3.342
  738SOL    HW2 2951  11.719   2.764   3.487
  738SOL     MW 2952  11.685   2.817   3.426
  739SOL     OW 2953  12.382   0.526   4.968
  739SOL    HW1 2954  12.430   0.609   4.977
  739SOL    HW2 2955  12.437   0.462   5.011
  739SOL     MW 2956  12.395   0.529   4.974
  740SOL     OW 2957  11.233   1.170   3.186
  740SOL    HW1 2958  11.282   1.246   3.151
  740SOL    HW2 2959  11.287   1.095   3.162
  740SOL     MW 2960  11.246   1.170   3.179
  741SOL     OW 2961  12.011   2.403   5.262
  741SOL    HW1 2962  11.927   2.359   5.278
  741SOL    HW2 2963  12.042   2.426   5.349
  741SOL     MW 2964  12.005   2.400   5.274
  742SOL     OW 2965  11.122   0.229   5.143
  742SOL    HW1 2966  11.069   0.174   5.085
  742SOL    HW2 2967  11.211   0.203   5.126
  742SOL     MW 2968  11.126   0.219   5.134
  743SOL     OW 2969  12.502   2.304   4.897
  743SOL    HW1 2970  12.550   2.237   4.847
  743SOL    HW2 2971  12.532   2.386   4.860
  743SOL     MW 2972  12.512   2.306   4.886
  744SOL     OW 2973  13.182   3.183   4.188
  744SOL    HW1 2974  13.188   3.233   4.270
  744SOL    HW2 2975  13.120   3.232   4.136
  744SOL     MW 2976  13.175   3.195   4.192
  745SOL     OW 2977  13.230   3.159   3.151
  745SOL    HW1 2978  13.260   3.120   3.068
  745SOL    HW2 2979  13.149   3.113   3.170
  745SOL     MW 2980  13.224   3.148   3.143
  746SOL     OW 2981  12.455   2.842   5.274
  746SOL    HW1 2982  12.493   2.838   5.186
  746SOL    HW2 2983  12.374   2.891   5.262
  746SOL     MW 2984  12.450   2.847   5.262
  747SOL     OW 2985  10.850   0.630   4.016
  747SOL    HW1 2986  10.776   0.649   3.957
  747SOL    HW2 2987  10.832   0.543   4.049
  747SOL     MW 2988  10.839   0.622   4.012
  748SOL     OW 2989  11.761   0.769   4.589
  748SOL    HW1 2990  11.697   0.720   4.536
  748SOL    HW2 2991  11.812   0.817   4.524
  748SOL     MW 2992  11.759   0.768   4.575
  749SOL     OW 2993  12.841   2.381   6.465
  749SOL    HW1 2994  12.839   2.473   6.438
  749SOL    HW2 2995  12.930   2.367   6.494
  749SOL     MW 2996  12.851   2.390   6.466
  750SOL     OW 2997  11.242   0.428   4.744
  750SOL    HW1 2998  11.204   0.365   4.682
  750SOL    HW2 2999  11.334   0.431   4.722
  750SOL     MW 3000  11.248   0.421   4.734
  751SOL     OW 3001  13.149   2.703   5.289
  751SOL    HW1 3002  13.141   2.629   5.229
  751SOL    HW2 3003  13.068   2.703   5.338
  751SOL     MW 3004  13.139   2.694   5.288
  752SOL     OW 3005  13.140   1.401   4.650
  752SOL    HW1 3006  13.217   1.352   4.679
  752SOL    HW2 3007  13.067   1.357   4.692
  752SOL     MW 3008  13.141   1.390   4.659
  753SOL     OW 3009  11.656   2.008   5.589
  753SOL    HW1 3010  11.609   1.949   5.529
  753SOL    HW2 3011  11.662   2.090   5.541
  753SOL     MW 3012  11.651   2.011   5.576
  754SOL     OW 3013  11.230   0.464   3.764
  754SOL    HW1 3014  11.223   0.557   3.740
  754SOL    HW2 3015  11.162   0.422   3.713
  754SOL     MW 3016  11.221   0.471   3.755
  755SOL     OW 3017  10.498   0.737   5.859
  755SOL    HW1 3018  10.497   0.760   5.953
  755SOL    HW2 3019  10.583   0.766   5.828
  755SOL     MW 3020  10.508   0.743   5.867
  756SOL     OW 3021  12.451   1.185   4.729
  756SOL    HW1 3022  12.377   1.141   4.686
  756SOL    HW2 3023  12.469   1.132   4.805
  756SOL     MW 3024  12.444   1.174   4.733
  757SOL     OW 3025  12.956   2.306   5.686
  757SOL    HW1 3026  12.981   2.233   5.744
  757SOL    HW2 3027  13.028   2.313   5.625
  757SOL     MW 3028  12.967   2.298   5.686
  758SOL     OW 3029  10.751   1.844   5.354
  758SOL    HW1 3030  10.804   1.873   5.279
  758SOL    HW2 3031  10.663   1.840   5.320
  758SOL     MW 3032  10.747   1.847   5.341
  759SOL     OW 3033  11.488   1.455   5.374
  759SOL    HW1 3034  11.552   1.390   5.344
  759SOL    HW2 3035  11.428   1.464   5.302
  759SOL     MW 3036  11.489   1.448   5.362
  760SOL     OW 3037  12.005   0.817   4.970
  760SOL    HW1 3038  12.024   0.883   4.902
  760SOL    HW2 3039  11.915   0.835   4.995
  760SOL     MW 3040  11.997   0.827   4.964
  761SOL     OW 3041  10.508   3.406   3.805
  761SOL    HW1 3042  10.579   3.460   3.770
  761SOL    HW2 3043  10.431   3.460   3.796
  761SOL     MW 3044  10.507   3.419   3.799
  762SOL     OW 3045  10.791   0.534   4.988
  762SOL    HW1 3046  10.759   0.620   5.016
  762SOL    HW2 3047  10.788   0.481   5.066
  762SOL     MW 3048  10.786   0.538   5.000
  763SOL     OW 3049  10.990   0.438   4.986
  763SOL    HW1 3050  11.075   0.446   5.030
  763SOL    HW2 3051  10.962   0.349   5.005
  763SOL     MW 3052  10.997   0.428   4.994
  764SOL     OW 3053  10.205   1.218   6.311
  764SOL    HW1 3054  10.155   1.271   6.375
  764SOL    HW2 3055  10.295   1.225   6.341
  764SOL     MW 3056  10.209   1.225   6.323
  765SOL     OW 3057  10.431   3.085   3.796
  765SOL    HW1 3058  10.366   3.118   3.734
  765SOL    HW2 3059  10.440   2.993   3.774
  765SOL     MW 3060  10.424   3.078   3.786
  766SOL     OW 3061  11.383   0.552   6.432
  766SOL    HW1 3062  11.299   0.513   6.457
  766SOL    HW2 3063  11.372   0.645   6.448
  766SOL     MW 3064  11.371   0.558   6.437
  767SOL     OW 3065  11.960   2.055   5.636
  767SOL    HW1 3066  11.866   2.066   5.621
  767SOL    HW2 3067  11.967   2.028   5.727
  767SOL     MW 3068  11.950   2.053   5.645
  768SOL     OW 3069  12.725   2.648   4.254
  768SOL    HW1 3070  12.759   2.604   4.176
  768SOL    HW2 3071  12.801   2.689   4.293
  768SOL     MW 3072  12.738   2.648   4.249
  769SOL     OW 3073  11.339   1.414   6.096
  769SOL    HW1 3074  11.318   1.489   6.153
  769SOL    HW2 3075  11.255   1.371   6.083
  769SOL     MW 3076  11.326   1.418   6.101
  770SOL     OW 3077  11.500   1.024   4.544
  770SOL    HW1 3078  11.469   1.100   4.595
  770SOL    HW2 3079  11.592   1.017   4.567
  770SOL     MW 3080  11.507   1.032   4.553
  771SOL     OW 3081  11.359   0.273   3.703
  771SOL    HW1 3082  11.292   0.253   3.770
  771SOL    HW2 3083  11.390   0.188   3.676
  771SOL     MW 3084  11.354   0.260   3.708
  772SOL     OW 3085  11.816   2.753   5.568
  772SOL    HW1 3086  11.903   2.793   5.577
  772SOL    HW2 3087  11.778   2.794   5.491
  772SOL     MW 3088  11.822   2.762   5.560
  773SOL     OW 3089  12.194   2.552   3.170
  773SOL    HW1 3090  12.209   2.460   3.191
  773SOL    HW2 3091  12.161   2.551   3.081
  773SOL     MW 3092  12.192   2.541   3.162
  774SOL     OW 3093  10.603   2.676   5.101
  774SOL    HW1 3094  10.598   2.599   5.159
  774SOL    HW2 3095  10.562   2.746   5.151
  774SOL     MW 3096  10.598   2.675   5.114
  775SOL     OW 3097  11.736   0.221   4.066
  775SOL    HW1 3098  11.738   0.131   4.101
  775SOL    HW2 3099  11.803   0.267   4.115
  775SOL     MW 3100  11.744   0.216   4.076
  776SOL     OW 3101  12.945   1.035   5.210
  776SOL    HW1 3102  12.914   0.948   5.239
  776SOL    HW2 3103  12.876   1.094   5.237
  776SOL     MW 3104  12.933   1.031   5.217
  777SOL     OW 3105  10.261   0.538   4.864
  777SOL    HW1 3106  10.283   0.522   4.771
  777SOL    HW2 3107  10.169   0.519   4.869
  777SOL     MW 3108  10.253   0.534   4.853
  778SOL     OW 3109  12.602   0.305   6.438
  778SOL    HW1 3110  12.686   0.280   6.397
  778SOL    HW2 3111  12.627   0.368   6.505
  778SOL     MW 3112  12.615   0.309   6.441
  779SOL     OW 3113  10.973   2.790   4.263
  779SOL    HW1 3114  10.914   2.824   4.331
  779SOL    HW2 3115  11.049   2.846   4.267
  779SOL     MW 3116  10.975   2.800   4.272
  780SOL     OW 3117  12.210   1.630   5.859
  780SOL    HW1 3118  12.161   1.638   5.777
  780SOL    HW2 3119  12.299   1.653   5.836
  780SOL     MW 3120  12.215   1.633   5.847
  781SOL     OW 3121  12.210   1.628   4.475
  781SOL    HW1 3122  12.236   1.690   4.543
  781SOL    HW2 3123  12.291   1.588   4.446
  781SOL     MW 3124  12.223   1.631   4.480
  782SOL     OW 3125  12.243   2.770   3.458
  782SOL    HW1 3126  12.279   2.708   3.523
  782SOL    HW2 3127  12.312   2.834   3.447
  782SOL     MW 3128  12.255   2.770   3.465
  783SOL     OW 3129  11.560   2.565   3.655
  783SOL    HW1 3130  11.490   2.596   3.713
  783SOL    HW2 3131  11.611   2.643   3.636
  783SOL     MW 3132  11.558   2.578   3.659
  784SOL     OW 3133  11.326   2.464   6.262
  784SOL    HW1 3134  11.266   2.470   6.187
  784SOL    HW2 3135  11.412   2.464   6.223
  784SOL     MW 3136  11.329   2.465   6.248
  785SOL     OW 3137  12.532   1.670   5.107
  785SOL    HW1 3138  12.601   1.731   5.134
  785SOL    HW2 3139  12.499   1.707   5.026
  785SOL     MW 3140  12.537   1.682   5.101
  786SOL     OW 3141  12.847   0.755   5.940
  786SOL    HW1 3142  12.790   0.833   5.940
  786SOL    HW2 3143  12.905   0.769   6.013
  786SOL     MW 3144  12.847   0.766   5.949
  787SOL     OW 3145  10.008   1.202   5.517
  787SOL    HW1 3146  10.048   1.133   5.570
  787SOL    HW2 3147  10.082   1.256   5.490
  787SOL     MW 3148  10.022   1.200   5.520
  788SOL     OW 3149  12.200   1.051   6.505
  788SOL    HW1 3150  12.179   1.145   6.510
  788SOL    HW2 3151  12.117   1.009   6.489
  788SOL     MW 3152  12.188   1.058   6.504
  789SOL     OW 3153  11.578   1.271   3.660
  789SOL    HW1 3154  11.483   1.262   3.674
  789SOL    HW2 3155  11.614   1.274   3.748
  789SOL     MW 3156  11.571   1.270   3.672
  790SOL     OW 3157  11.681   2.477   4.503
  790SOL    HW1 3158  11.679   2.449   4.595
  790SOL    HW2 3159  11.764   2.522   4.494
  790SOL     MW 3160  11.691   2.479   4.513
  791SOL     OW 3161  12.556   3.391   3.709
  791SOL    HW1 3162  12.619   3.460   3.731
  791SOL    HW2 3163  12.604   3.310   3.724
  791SOL     MW 3164  12.570   3.390   3.714
  792SOL     OW 3165  12.870   0.269   3.525
  792SOL    HW1 3166  12.778   0.290   3.538
  792SOL    HW2 3167  12.868   0.187   3.476
  792SOL     MW 3168  12.859   0.262   3.521
  793SOL     OW 3169  12.174   0.751   6.404
  793SOL    HW1 3170  12.139   0.698   6.332
  793SOL    HW2 3171  12.149   0.703   6.482
  793SOL     MW 3172  12.167   0.739   6.404
  794SOL     OW 3173  10.251   0.774   5.404
  794SOL    HW1 3174  10.314   0.784   5.477
  794SOL    HW2 3175  10.242   0.680   5.394
  794SOL     MW 3176  10.258   0.764   5.411
  795SOL     OW 3177  11.818   1.773   3.050
  795SOL    HW1 3178  11.795   1.761   3.143
  795SOL    HW2 3179  11.913   1.775   3.050
  795SOL     MW 3180  11.827   1.772   3.062
  796SOL     OW 3181  13.026   2.548   5.929
  796SOL    HW1 3182  13.073   2.539   6.012
  796SOL    HW2 3183  12.955   2.608   5.949
  796SOL     MW 3184  13.023   2.554   5.941
  797SOL     OW 3185  12.639   2.986   6.250
  797SOL    HW1 3186  12.681   2.921   6.192
  797SOL    HW2 3187  12.685   3.067   6.232
  797SOL     MW 3188  12.649   2.987   6.241
  798SOL     OW 3189  11.226   1.958   6.066
  798SOL    HW1 3190  11.197   2.043   6.031
  798SOL    HW2 3191  11.251   1.909   5.988
  798SOL     MW 3192  11.225   1.962   6.052
  799SOL     OW 3193  10.950   0.435   5.232
  799SOL    HW1 3194  11.026   0.430   5.291
  799SOL    HW2 3195  10.886   0.378   5.273
  799SOL     MW 3196  10.951   0.427   5.244
  800SOL     OW 3197  12.913   3.020   4.567
  800SOL    HW1 3198  12.911   3.086   4.637
  800SOL    HW2 3199  12.998   2.978   4.578
  800SOL     MW 3200  12.923   3.023   4.577
  801SOL     OW 3201  11.405   1.250   5.256
  801SOL    HW1 3202  11.348   1.248   5.179
  801SOL    HW2 3203  11.440   1.162   5.262
  801SOL     MW 3204  11.402   1.240   5.247
  802SOL     OW 3205  11.879   1.252   5.093
  802SOL    HW1 3206  11.853   1.309   5.166
  802SOL    HW2 3207  11.953   1.203   5.127
  802SOL     MW 3208  11.884   1.253   5.106
  803SOL     OW 3209  12.531   3.126   6.086
  803SOL    HW1 3210  12.530   3.035   6.055
  803SOL    HW2 3211  12.447   3.161   6.057
  803SOL     MW 3212  12.521   3.119   6.079
  804SOL     OW 3213  12.412   0.139   6.255
  804SOL    HW1 3214  12.404   0.208   6.189
  804SOL    HW2 3215  12.325   0.101   6.260
  804SOL     MW 3216  12.401   0.143   6.247
  805SOL     OW 3217  11.819   1.592   5.470
  805SOL    HW1 3218  11.801   1.505   5.509
  805SOL    HW2 3219  11.740   1.642   5.486
  805SOL     MW 3220  11.807   1.587   5.476
  806SOL     OW 3221  12.715   1.216   3.567
  806SOL    HW1 3222  12.729   1.147   3.501
  806SOL    HW2 3223  12.781   1.281   3.547
  806SOL     MW 3224  12.724   1.215   3.556
  807SOL     OW 3225  11.127   3.334   5.232
  807SOL    HW1 3226  11.075   3.372   5.160
  807SOL    HW2 3227  11.143   3.245   5.204
  807SOL     MW 3228  11.123   3.328   5.220
  808SOL     OW 3229  12.612   2.341   5.135
  808SOL    HW1 3230  12.579   2.342   5.226
  808SOL    HW2 3231  12.554   2.401   5.089
  808SOL     MW 3232  12.601   2.348   5.141
  809SOL     OW 3233  10.537   2.355   5.599
  809SOL    HW1 3234  10.469   2.357   5.667
  809SOL    HW2 3235  10.614   2.392   5.641
  809SOL     MW 3236  10.538   2.359   5.612
  810SOL     OW 3237  12.748   1.363   4.567
  810SOL    HW1 3238  12.683   1.344   4.498
  810SOL    HW2 3239  12.804   1.287   4.568
  810SOL     MW 3240  12.746   1.351   4.559
  811SOL     OW 3241  10.913   1.330   6.437
  811SOL    HW1 3242  10.866   1.320   6.354
  811SOL    HW2 3243  10.845   1.333   6.503
  811SOL     MW 3244  10.899   1.329   6.435
  812SOL     OW 3245  13.057   1.894   5.915
  812SOL    HW1 3246  13.146   1.888   5.951
  812SOL    HW2 3247  13.045   1.812   5.869
  812SOL     MW 3248  13.067   1.883   5.914
  813SOL     OW 3249  12.039   0.635   3.906
  813SOL    HW1 3250  12.079   0.720   3.888
  813SOL    HW2 3251  11.982   0.619   3.832
  813SOL     MW 3252  12.037   0.643   3.895
  814SOL     OW 3253  11.216   3.209   4.489
  814SOL    HW1 3254  11.208   3.290   4.437
  814SOL    HW2 3255  11.131   3.167   4.479
  814SOL     MW 3256  11.205   3.214   4.481
  815SOL     OW 3257  11.210   0.894   6.272
  815SOL    HW1 3258  11.121   0.866   6.295
  815SOL    HW2 3259  11.265   0.819   6.293
  815SOL     MW 3260  11.206   0.882   6.277
  816SOL     OW 3261  10.964   3.090   6.495
  816SOL    HW1 3262  10.954   3.101   6.400
  816SOL    HW2 3263  10.945   2.998   6.510
  816SOL     MW 3264  10.960   3.080   6.486
  817SOL     OW 3265  11.023   2.189   6.121
  817SOL    HW1 3266  10.972   2.259   6.078
  817SOL    HW2 3267  10.958   2.135   6.164
  817SOL     MW 3268  11.009   2.191   6.121
  818SOL     OW 3269  13.063   3.212   5.908
  818SOL    HW1 3270  13.139   3.244   5.859
  818SOL    HW2 3271  13.070   3.254   5.993
  818SOL     MW 3272  13.073   3.221   5.912
  819SOL     OW 3273  10.609   1.369   5.640
  819SOL    HW1 3274  10.589   1.442   5.700
  819SOL    HW2 3275  10.624   1.295   5.697
  819SOL     MW 3276  10.608   1.369   5.654
  820SOL     OW 3277  13.091   2.628   5.009
  820SOL    HW1 3278  13.173   2.678   5.016
  820SOL    HW2 3279  13.027   2.694   4.984
  820SOL     MW 3280  13.093   2.642   5.006
  821SOL     OW 3281  10.399   2.074   6.280
  821SOL    HW1 3282  10.446   2.151   6.246
  821SOL    HW2 3283  10.429   2.002   6.226
  821SOL     MW 3284  10.408   2.075   6.270
  822SOL     OW 3285  11.851   1.716   4.213
  822SOL    HW1 3286  11.841   1.628   4.176
  822SOL    HW2 3287  11.772   1.762   4.185
  822SOL     MW 3288  11.840   1.711   4.205
  823SOL     OW 3289  10.126   3.008   6.403
  823SOL    HW1 3290  10.067   2.938   6.373
  823SOL    HW2 3291  10.084   3.088   6.375
  823SOL     MW 3292  10.114   3.009   6.396
  824SOL     OW 3293  13.205   1.719   4.706
  824SOL    HW1 3294  13.235   1.628   4.718
  824SOL    HW2 3295  13.123   1.722   4.755
  824SOL     MW 3296  13.199   1.708   4.714
  825SOL     OW 3297  10.178   1.573   4.082
  825SOL    HW1 3298  10.234   1.622   4.143
  825SOL    HW2 3299  10.238   1.537   4.018
  825SOL     MW 3300  10.192   1.575   4.082
  826SOL     OW 3301  11.391   1.374   4.480
  826SOL    HW1 3302  11.447   1.300   4.504
  826SOL    HW2 3303  11.452   1.445   4.464
  826SOL     MW 3304  11.405   1.373   4.481
  827SOL     OW 3305  12.362   0.186   5.464
  827SOL    HW1 3306  12.285   0.217   5.513
  827SOL    HW2 3307  12.363   0.092   5.479
  827SOL     MW 3308  12.353   0.179   5.471
  828SOL     OW 3309  10.544   3.109   3.984
  828SOL    HW1 3310  10.479   3.069   4.043
  828SOL    HW2 3311  10.517   3.199   3.977
  828SOL     MW 3312  10.533   3.115   3.990
  829SOL     OW 3313  11.184   0.844   3.413
  829SOL    HW1 3314  11.118   0.892   3.361
  829SOL    HW2 3315  11.244   0.811   3.348
  829SOL     MW 3316  11.183   0.846   3.399
  830SOL     OW 3317  11.934   1.740   4.649
  830SOL    HW1 3318  11.929   1.719   4.743
  830SOL    HW2 3319  12.026   1.735   4.629
  830SOL     MW 3320  11.944   1.736   4.658
  831SOL     OW 3321  12.758   2.479   5.738
  831SOL    HW1 3322  12.817   2.513   5.807
  831SOL    HW2 3323  12.748   2.553   5.679
  831SOL     MW 3324  12.764   2.492   5.739
  832SOL     OW 3325  10.506   1.230   4.596
  832SOL    HW1 3326  10.533   1.140   4.573
  832SOL    HW2 3327  10.454   1.258   4.521
  832SOL     MW 3328  10.503   1.222   4.584
  833SOL     OW 3329  10.618   2.846   4.218
  833SOL    HW1 3330  10.608   2.814   4.128
  833SOL    HW2 3331  10.704   2.886   4.220
  833SOL     MW 3332  10.627   2.847   4.207
  834SOL     OW 3333  12.005   3.231   6.007
  834SOL    HW1 3334  11.972   3.185   5.929
  834SOL    HW2 3335  12.093   3.197   6.019
  834SOL     MW 3336  12.012   3.222   5.999
  835SOL     OW 3337  11.006   3.391   3.600
  835SOL    HW1 3338  11.027   3.297   3.606
  835SOL    HW2 3339  10.968   3.412   3.684
  835SOL     MW 3340  11.004   3.382   3.611
  836SOL     OW 3341  12.909   1.375   3.883
  836SOL    HW1 3342  12.964   1.347   3.809
  836SOL    HW2 3343  12.841   1.309   3.887
  836SOL     MW 3344  12.908   1.364   3.874
  837SOL     OW 3345  12.107   2.998   3.067
  837SOL    HW1 3346  12.173   3.033   3.128
  837SOL    HW2 3347  12.127   2.905   3.061
  837SOL     MW 3348  12.117   2.991   3.074
  838SOL     OW 3349  10.688   3.440   3.408
  838SOL    HW1 3350  10.658   3.348   3.404
  838SOL    HW2 3351  10.709   3.461   3.318
  838SOL     MW 3352  10.687   3.431   3.397
  839SOL     OW 3353  10.996   3.396   5.510
  839SOL    HW1 3354  10.952   3.463   5.563
  839SOL    HW2 3355  10.976   3.421   5.420
  839SOL     MW 3356  10.989   3.407   5.506
  840SOL     OW 3357  11.107   0.044   5.746
  840SOL    HW1 3358  11.180   0.013   5.801
  840SOL    HW2 3359  11.031   0.000   5.783
  840SOL     MW 3360  11.107   0.035   5.757
  841SOL     OW 3361  13.166   0.876   5.736
  841SOL    HW1 3362  13.138   0.784   5.745
  841SOL    HW2 3363  13.207   0.880   5.651
  841SOL     MW 3364  13.167   0.865   5.727
  842SOL     OW 3365  11.246   1.248   5.736
  842SOL    HW1 3366  11.278   1.168   5.694
  842SOL    HW2 3367  11.325   1.298   5.753
  842SOL     MW 3368  11.259   1.244   5.733
  843SOL     OW 3369  10.677   0.672   4.423
  843SOL    HW1 3370  10.718   0.673   4.510
  843SOL    HW2 3371  10.699   0.587   4.388
  843SOL     MW 3372  10.685   0.662   4.430
  844SOL     OW 3373  11.748   0.585   5.426
  844SOL    HW1 3374  11.735   0.559   5.334
  844SOL    HW2 3375  11.754   0.503   5.472
  844SOL     MW 3376  11.747   0.572   5.420
  845SOL     OW 3377  12.297   2.355   3.467
  845SOL    HW1 3378  12.369   2.344   3.405
  845SOL    HW2 3379  12.227   2.393   3.415
  845SOL     MW 3380  12.297   2.358   3.454
  846SOL     OW 3381  10.852   2.730   6.451
  846SOL    HW1 3382  10.843   2.689   6.364
  846SOL    HW2 3383  10.857   2.657   6.511
  846SOL     MW 3384  10.852   2.716   6.447
  847SOL     OW 3385  12.910   2.412   4.149
  847SOL    HW1 3386  12.976   2.476   4.121
  847SOL    HW2 3387  12.848   2.410   4.077
  847SOL     MW 3388  12.911   2.420   4.137
  848SOL     OW 3389  11.277   0.987   5.364
  848SOL    HW1 3390  11.210   1.044   5.404
  848SOL    HW2 3391  11.358   1.015   5.404
  848SOL     MW 3392  11.278   0.998   5.374
  849SOL     OW 3393  13.266   1.974   4.597
  849SOL    HW1 3394  13.321   2.049   4.623
  849SOL    HW2 3395  13.327   1.911   4.561
  849SOL     MW 3396  13.280   1.975   4.596
  850SOL     OW 3397  12.977   0.969   3.118
  850SOL    HW1 3398  13.062   0.932   3.092
  850SOL    HW2 3399  12.931   0.897   3.159
  850SOL     MW 3400  12.982   0.956   3.120
  851SOL     OW 3401  12.530   1.969   6.327
  851SOL    HW1 3402  12.566   1.906   6.390
  851SOL    HW2 3403  12.438   1.973   6.348
  851SOL     MW 3404  12.524   1.962   6.337
  852SOL     OW 3405  12.575   2.006   5.526
  852SOL    HW1 3406  12.501   1.956   5.491
  852SOL    HW2 3407  12.608   1.952   5.598
  852SOL     MW 3408  12.570   1.993   5.530
  853SOL     OW 3409  12.683   2.421   5.514
  853SOL    HW1 3410  12.629   2.359   5.563
  853SOL    HW2 3411  12.620   2.483   5.478
  853SOL     MW 3412  12.669   2.421   5.516
  854SOL     OW 3413  11.602   1.178   5.054
  854SOL    HW1 3414  11.606   1.231   5.134
  854SOL    HW2 3415  11.517   1.136   5.057
  854SOL     MW 3416  11.593   1.180   5.064
  855SOL     OW 3417  10.637   2.738   5.392
  855SOL    HW1 3418  10.712   2.721   5.333
  855SOL    HW2 3419  10.570   2.678   5.362
  855SOL     MW 3420  10.639   2.729   5.381
  856SOL     OW 3421  10.908   3.160   5.875
  856SOL    HW1 3422  10.942   3.080   5.918
  856SOL    HW2 3423  10.814   3.148   5.872
  856SOL     MW 3424  10.901   3.149   5.880
  857SOL     OW 3425  12.639   2.763   4.526
  857SOL    HW1 3426  12.696   2.834   4.494
  857SOL    HW2 3427  12.670   2.686   4.481
  857SOL     MW 3428  12.650   2.763   4.517
  858SOL     OW 3429  11.951   0.550   6.504
  858SOL    HW1 3430  12.002   0.552   6.422
  858SOL    HW2 3431  11.921   0.461   6.511
  858SOL     MW 3432  11.954   0.540   6.495
  859SOL     OW 3433  11.051   1.451   5.281
  859SOL    HW1 3434  11.085   1.502   5.207
  859SOL    HW2 3435  11.024   1.517   5.344
  859SOL     MW 3436  11.052   1.465   5.280
  860SOL     OW 3437  11.748   3.175   3.144
  860SOL    HW1 3438  11.720   3.107   3.205
  860SOL    HW2 3439  11.762   3.252   3.198
  860SOL     MW 3440  11.746   3.176   3.158
  861SOL     OW 3441  10.800   2.747   3.533
  861SOL    HW1 3442  10.704   2.757   3.534
  861SOL    HW2 3443  10.813   2.665   3.486
  861SOL     MW 3444  10.790   2.738   3.527
  862SOL     OW 3445  10.821   0.412   4.714
  862SOL    HW1 3446  10.885   0.355   4.672
  862SOL    HW2 3447  10.854   0.424   4.802
  862SOL     MW 3448  10.833   0.407   4.720
  863SOL     OW 3449  12.678   3.086   4.642
  863SOL    HW1 3450  12.666   2.992   4.663
  863SOL    HW2 3451  12.711   3.124   4.722
  863SOL     MW 3452  12.680   3.079   4.654
  864SOL     OW 3453  12.680   0.237   4.198
  864SOL    HW1 3454  12.656   0.163   4.141
  864SOL    HW2 3455  12.639   0.312   4.156
  864SOL     MW 3456  12.672   0.237   4.186
  865SOL     OW 3457  11.171   1.922   5.498
  865SOL    HW1 3458  11.233   1.885   5.434
  865SOL    HW2 3459  11.171   2.015   5.479
  865SOL     MW 3460  11.178   1.928   5.488
  866SOL     OW 3461  11.030   1.786   5.814
  866SOL    HW1 3462  11.023   1.881   5.805
  866SOL    HW2 3463  11.103   1.773   5.873
  866SOL     MW 3464  11.038   1.796   5.820
  867SOL     OW 3465  11.183   1.828   3.073
  867SOL    HW1 3466  11.232   1.911   3.069
  867SOL    HW2 3467  11.247   1.762   3.050
  867SOL     MW 3468  11.197   1.830   3.070
  868SOL     OW 3469  11.800   0.694   5.846
  868SOL    HW1 3470  11.743   0.771   5.842
  868SOL    HW2 3471  11.778   0.653   5.929
  868SOL     MW 3472  11.790   0.699   5.855
  869SOL     OW 3473  13.066   1.163   6.228
  869SOL    HW1 3474  13.095   1.099   6.293
  869SOL    HW2 3475  12.977   1.183   6.253
  869SOL     MW 3476  13.059   1.158   6.239
  870SOL     OW 3477  13.045   0.397   6.317
  870SOL    HW1 3478  12.981   0.422   6.385
  870SOL    HW2 3479  12.995   0.347   6.254
  870SOL     MW 3480  13.032   0.394   6.318
  871SOL     OW 3481  11.495   2.083   3.158
  871SOL    HW1 3482  11.420   2.117   3.108
  871SOL    HW2 3483  11.480   2.115   3.247
  871SOL     MW 3484  11.484   2.091   3.163
  872SOL     OW 3485  11.283   0.620   5.999
  872SOL    HW1 3486  11.206   0.563   6.004
  872SOL    HW2 3487  11.310   0.632   6.089
  872SOL     MW 3488  11.277   0.614   6.010
  873SOL     OW 3489  11.534   1.880   3.267
  873SOL    HW1 3490  11.473   1.846   3.333
  873SOL    HW2 3491  11.620   1.865   3.304
  873SOL     MW 3492  11.536   1.874   3.280
  874SOL     OW 3493  11.468   0.569   5.469
  874SOL    HW1 3494  11.539   0.622   5.508
  874SOL    HW2 3495  11.428   0.526   5.544
  874SOL     MW 3496  11.472   0.570   5.483
  875SOL     OW 3497  11.252   2.074   3.388
  875SOL    HW1 3498  11.321   2.141   3.397
  875SOL    HW2 3499  11.172   2.122   3.402
  875SOL     MW 3500  11.251   2.088   3.391
  876SOL     OW 3501  12.236   2.553   5.470
  876SOL    HW1 3502  12.288   2.515   5.541
  876SOL    HW2 3503  12.146   2.547   5.502
  876SOL     MW 3504  12.231   2.548   5.483
  877SOL     OW 3505  10.486   2.458   5.863
  877SOL    HW1 3506  10.478   2.553   5.873
  877SOL    HW2 3507  10.492   2.425   5.952
  877SOL     MW 3508  10.486   2.465   5.875
  878SOL     OW 3509  10.658   3.462   5.996
  878SOL    HW1 3510  10.666   3.428   6.085
  878SOL    HW2 3511  10.566   3.454   5.976
  878SOL     MW 3512  10.648   3.457   6.004
  879SOL     OW 3513  11.691   0.184   5.681
  879SOL    HW1 3514  11.758   0.117   5.665
  879SOL    HW2 3515  11.653   0.199   5.595
  879SOL     MW 3516  11.694   0.177   5.668
  880SOL     OW 3517  10.257   1.185   6.001
  880SOL    HW1 3518  10.268   1.153   6.091
  880SOL    HW2 3519  10.260   1.280   6.010
  880SOL     MW 3520  10.259   1.193   6.013
  881SOL     OW 3521  12.641   1.327   4.167
  881SOL    HW1 3522  12.546   1.340   4.157
  881SOL    HW2 3523  12.659   1.357   4.255
  881SOL     MW 3524  12.631   1.332   4.176
  882SOL     OW 3525  12.914   3.091   4.056
  882SOL    HW1 3526  12.853   3.144   4.107
  882SOL    HW2 3527  12.970   3.051   4.121
  882SOL     MW 3528  12.913   3.093   4.070
  883SOL     OW 3529  12.507   2.831   4.254
  883SOL    HW1 3530  12.447   2.756   4.256
  883SOL    HW2 3531  12.579   2.804   4.309
  883SOL     MW 3532  12.508   2.818   4.260
  884SOL     OW 3533  10.959   3.315   5.725
  884SOL    HW1 3534  11.008   3.361   5.794
  884SOL    HW2 3535  10.870   3.349   5.733
  884SOL     MW 3536  10.954   3.325   5.734
  885SOL     OW 3537  12.303   2.850   3.695
  885SOL    HW1 3538  12.390   2.846   3.653
  885SOL    HW2 3539  12.260   2.922   3.651
  885SOL     MW 3540  12.309   2.858   3.684
  886SOL     OW 3541  13.154   0.510   6.510
  886SOL    HW1 3542  13.240   0.554   6.510
  886SOL    HW2 3543  13.175   0.419   6.494
  886SOL     MW 3544  13.167   0.504   6.508
  887SOL     OW 3545  11.672   1.723   4.506
  887SOL    HW1 3546  11.757   1.746   4.467
  887SOL    HW2 3547  11.648   1.800   4.556
  887SOL     MW 3548  11.680   1.735   4.507
  888SOL     OW 3549  10.299   1.796   5.713
  888SOL    HW1 3550  10.342   1.838   5.788
  888SOL    HW2 3551  10.266   1.714   5.748
  888SOL     MW 3552  10.301   1.791   5.727
  889SOL     OW 3553  12.082   1.899   5.034
  889SOL    HW1 3554  11.987   1.890   5.018
  889SOL    HW2 3555  12.116   1.929   4.951
  889SOL     MW 3556  12.074   1.901   5.022
  890SOL     OW 3557  11.130   0.019   4.628
  890SOL    HW1 3558  11.081  -0.001   4.548
  890SOL    HW2 3559  11.063   0.039   4.693
  890SOL     MW 3560  11.116   0.019   4.626
  891SOL     OW 3561  12.691   2.809   3.073
  891SOL    HW1 3562  12.690   2.716   3.050
  891SOL    HW2 3563  12.623   2.818   3.139
  891SOL     MW 3564  12.683   2.799   3.078
  892SOL     OW 3565  10.372   1.916   4.641
  892SOL    HW1 3566  10.405   1.999   4.605
  892SOL    HW2 3567  10.299   1.942   4.696
  892SOL     MW 3568  10.367   1.929   4.643
  893SOL     OW 3569  11.326   1.177   6.272
  893SOL    HW1 3570  11.268   1.224   6.333
  893SOL    HW2 3571  11.412   1.213   6.289
  893SOL     MW 3572  11.329   1.187   6.282
  894SOL     OW 3573  12.616   0.062   6.482
  894SOL    HW1 3574  12.553  -0.000   6.444
  894SOL    HW2 3575  12.691   0.009   6.505
  894SOL     MW 3576  12.617   0.048   6.480
  895SOL     OW 3577  10.888   2.041   3.392
  895SOL    HW1 3578  10.920   2.027   3.302
  895SOL    HW2 3579  10.955   2.096   3.432
  895SOL     MW 3580  10.900   2.046   3.386
  896SOL     OW 3581  10.851   0.114   4.471
  896SOL    HW1 3582  10.927   0.153   4.515
  896SOL    HW2 3583  10.828   0.039   4.524
  896SOL     MW 3584  10.858   0.110   4.483
  897SOL     OW 3585  12.487   0.622   6.168
  897SOL    HW1 3586  12.498   0.716   6.150
  897SOL    HW2 3587  12.393   0.610   6.172
  897SOL     MW 3588  12.477   0.632   6.166
  898SOL     OW 3589  11.099   0.742   3.876
  898SOL    HW1 3590  11.036   0.676   3.908
  898SOL    HW2 3591  11.052   0.790   3.810
  898SOL     MW 3592  11.085   0.739   3.872
  899SOL     OW 3593  12.818   0.044   3.767
  899SOL    HW1 3594  12.778   0.064   3.682
  899SOL    HW2 3595  12.746   0.009   3.819
  899SOL     MW 3596  12.804   0.042   3.763
  900SOL     OW 3597  12.466   2.832   6.296
  900SOL    HW1 3598  12.423   2.850   6.380
  900SOL    HW2 3599  12.436   2.902   6.239
  900SOL     MW 3600  12.457   2.842   6.299
  901SOL     OW 3601  11.769   0.264   3.279
  901SOL    HW1 3602  11.833   0.334   3.263
  901SOL    HW2 3603  11.802   0.219   3.356
  901SOL     MW 3604  11.781   0.267   3.286
  902SOL     OW 3605  10.476   1.668   5.828
  902SOL    HW1 3606  10.463   1.615   5.749
  902SOL    HW2 3607  10.566   1.654   5.852
  902SOL     MW 3608  10.485   1.660   5.821
  903SOL     OW 3609  12.069   1.306   4.855
  903SOL    HW1 3610  12.042   1.255   4.933
  903SOL    HW2 3611  12.121   1.377   4.891
  903SOL     MW 3612  12.072   1.308   4.869
  904SOL     OW 3613  11.912   3.300   3.831
  904SOL    HW1 3614  11.984   3.283   3.892
  904SOL    HW2 3615  11.836   3.312   3.887
  904SOL     MW 3616  11.912   3.299   3.845
  905SOL     OW 3617  12.780   2.625   6.227
  905SOL    HW1 3618  12.859   2.590   6.183
  905SOL    HW2 3619  12.811   2.651   6.312
  905SOL     MW 3620  12.794   2.624   6.231
  906SOL     OW 3621  11.901   2.297   6.131
  906SOL    HW1 3622  11.916   2.209   6.096
  906SOL    HW2 3623  11.958   2.302   6.207
  906SOL     MW 3624  11.910   2.287   6.136
  907SOL     OW 3625  12.265   3.155   5.497
  907SOL    HW1 3626  12.345   3.105   5.514
  907SOL    HW2 3627  12.256   3.155   5.403
  907SOL     MW 3628  12.273   3.148   5.488
  908SOL     OW 3629  12.316   1.554   6.204
  908SOL    HW1 3630  12.362   1.543   6.121
  908SOL    HW2 3631  12.264   1.633   6.192
  908SOL     MW 3632  12.315   1.562   6.192
  909SOL     OW 3633  11.388   1.628   5.923
  909SOL    HW1 3634  11.441   1.566   5.974
  909SOL    HW2 3635  11.299   1.612   5.951
  909SOL     MW 3636  11.384   1.619   5.932
  910SOL     OW 3637  10.598   1.525   5.313
  910SOL    HW1 3638  10.642   1.488   5.236
  910SOL    HW2 3639  10.550   1.599   5.279
  910SOL     MW 3640  10.598   1.530   5.300
  911SOL     OW 3641  10.470   3.375   6.170
  911SOL    HW1 3642  10.483   3.307   6.237
  911SOL    HW2 3643  10.379   3.399   6.178
  911SOL     MW 3644  10.461   3.370   6.179
  912SOL     OW 3645  12.240   0.829   4.741
  912SOL    HW1 3646  12.201   0.745   4.716
  912SOL    HW2 3647  12.228   0.833   4.835
  912SOL     MW 3648  12.234   0.819   4.749
  913SOL     OW 3649  10.920   0.550   4.574
  913SOL    HW1 3650  10.974   0.526   4.499
  913SOL    HW2 3651  10.925   0.645   4.577
  913SOL     MW 3652  10.927   0.559   4.565
  914SOL     OW 3653  12.451   0.836   3.276
  914SOL    HW1 3654  12.544   0.843   3.253
  914SOL    HW2 3655  12.445   0.754   3.323
  914SOL     MW 3656  12.461   0.827   3.279
  915SOL     OW 3657  11.325   3.050   3.705
  915SOL    HW1 3658  11.316   2.956   3.718
  915SOL    HW2 3659  11.253   3.074   3.649
  915SOL     MW 3660  11.316   3.042   3.700
  916SOL     OW 3661  11.413   3.276   3.853
  916SOL    HW1 3662  11.417   3.280   3.757
  916SOL    HW2 3663  11.339   3.331   3.876
  916SOL     MW 3664  11.405   3.283   3.844
  917SOL     OW 3665  10.679   0.076   5.368
  917SOL    HW1 3666  10.610   0.034   5.316
  917SOL    HW2 3667  10.705   0.010   5.431
  917SOL     MW 3668  10.674   0.064   5.369
  918SOL     OW 3669  10.208   3.157   3.317
  918SOL    HW1 3670  10.242   3.192   3.400
  918SOL    HW2 3671  10.280   3.170   3.256
  918SOL     MW 3672  10.221   3.163   3.320
  919SOL     OW 3673  12.851   2.806   5.993
  919SOL    HW1 3674  12.807   2.783   6.076
  919SOL    HW2 3675  12.810   2.887   5.967
  919SOL     MW 3676  12.841   2.813   6.000
  920SOL     OW 3677  10.137   3.452   3.480
  920SOL    HW1 3678  10.191   3.402   3.543
  920SOL    HW2 3679  10.173   3.428   3.396
  920SOL     MW 3680  10.148   3.443   3.478
  921SOL     OW 3681  12.431   2.985   5.677
  921SOL    HW1 3682  12.465   2.968   5.766
  921SOL    HW2 3683  12.384   2.906   5.655
  921SOL     MW 3684  12.429   2.974   5.685
  922SOL     OW 3685  10.936   2.413   5.928
  922SOL    HW1 3686  10.869   2.442   5.991
  922SOL    HW2 3687  11.008   2.473   5.943
  922SOL     MW 3688  10.936   2.424   5.938
  923SOL     OW 3689  11.265   1.207   4.808
  923SOL    HW1 3690  11.169   1.212   4.806
  923SOL    HW2 3691  11.294   1.293   4.781
  923SOL     MW 3692  11.257   1.218   4.805
  924SOL     OW 3693  10.825   3.387   4.819
  924SOL    HW1 3694  10.881   3.449   4.867
  924SOL    HW2 3695  10.857   3.301   4.846
  924SOL     MW 3696  10.836   3.384   4.828
  925SOL     OW 3697  10.009   2.614   5.490
  925SOL    HW1 3698  10.019   2.682   5.422
  925SOL    HW2 3699  10.080   2.631   5.550
  925SOL     MW 3700  10.019   2.625   5.489
  926SOL     OW 3701  10.480   1.062   6.083
  926SOL    HW1 3702  10.510   1.150   6.057
  926SOL    HW2 3703  10.524   1.003   6.022
  926SOL     MW 3704  10.489   1.066   6.073
  927SOL     OW 3705  11.545   2.724   6.438
  927SOL    HW1 3706  11.543   2.802   6.495
  927SOL    HW2 3707  11.624   2.678   6.464
  927SOL     MW 3708  11.554   2.728   6.448
  928SOL     OW 3709  12.867   1.606   3.811
  928SOL    HW1 3710  12.828   1.690   3.784
  928SOL    HW2 3711  12.825   1.541   3.755
  928SOL     MW 3712  12.857   1.608   3.801
  929SOL     OW 3713  11.347   0.849   5.197
  929SOL    HW1 3714  11.408   0.775   5.213
  929SOL    HW2 3715  11.405   0.922   5.177
  929SOL     MW 3716  11.362   0.848   5.197
  930SOL     OW 3717  13.208   1.260   5.638
  930SOL    HW1 3718  13.211   1.236   5.545
  930SOL    HW2 3719  13.296   1.242   5.669
  930SOL     MW 3720  13.219   1.255   5.631
  931SOL     OW 3721  11.902   3.169   4.646
  931SOL    HW1 3722  11.925   3.221   4.568
  931SOL    HW2 3723  11.811   3.146   4.631
  931SOL     MW 3724  11.894   3.173   4.634
  932SOL     OW 3725  11.750   0.913   3.860
  932SOL    HW1 3726  11.808   0.903   3.784
  932SOL    HW2 3727  11.734   1.006   3.865
  932SOL     MW 3728  11.755   0.923   3.851
  933SOL     OW 3729  10.548   2.118   5.588
  933SOL    HW1 3730  10.566   2.151   5.676
  933SOL    HW2 3731  10.460   2.150   5.569
  933SOL     MW 3732  10.540   2.126   5.596
  934SOL     OW 3733  12.228   0.262   5.747
  934SOL    HW1 3734  12.162   0.213   5.798
  934SOL    HW2 3735  12.178   0.326   5.699
  934SOL     MW 3736  12.214   0.264   5.747
  935SOL     OW 3737  10.187   2.502   5.819
  935SOL    HW1 3738  10.276   2.470   5.799
  935SOL    HW2 3739  10.195   2.536   5.908
  935SOL     MW 3740  10.199   2.502   5.827
  936SOL     OW 3741  11.233   2.962   3.444
  936SOL    HW1 3742  11.149   2.964   3.396
  936SOL    HW2 3743  11.236   2.875   3.481
  936SOL     MW 3744  11.223   2.952   3.442
  937SOL     OW 3745  12.557   0.495   5.564
  937SOL    HW1 3746  12.515   0.508   5.478
  937SOL    HW2 3747  12.559   0.582   5.601
  937SOL     MW 3748  12.552   0.507   5.558
  938SOL     OW 3749  12.611   1.418   6.365
  938SOL    HW1 3750  12.704   1.420   6.388
  938SOL    HW2 3751  12.569   1.376   6.439
  938SOL     MW 3752  12.617   1.414   6.377
  939SOL     OW 3753  11.926   1.438   5.677
  939SOL    HW1 3754  12.021   1.436   5.691
  939SOL    HW2 3755  11.889   1.420   5.763
  939SOL     MW 3756  11.933   1.436   5.689
  940SOL     OW 3757  10.790   2.636   5.795
  940SOL    HW1 3758  10.863   2.613   5.852
  940SOL    HW2 3759  10.722   2.574   5.819
  940SOL     MW 3760  10.791   2.626   5.805
  941SOL     OW 3761  12.502   1.460   5.050
  941SOL    HW1 3762  12.485   1.403   5.126
  941SOL    HW2 3763  12.534   1.400   4.983
  941SOL     MW 3764  12.504   1.446   5.051
  942SOL     OW 3765  12.080   0.111   5.246
  942SOL    HW1 3766  12.093   0.182   5.182
  942SOL    HW2 3767  11.991   0.083   5.232
  942SOL     MW 3768  12.071   0.116   5.236
  943SOL     OW 3769  12.449   2.771   4.829
  943SOL    HW1 3770  12.510   2.824   4.778
  943SOL    HW2 3771  12.434   2.694   4.776
  943SOL     MW 3772  12.455   2.769   4.817
  944SOL     OW 3773  12.929   1.506   5.677
  944SOL    HW1 3774  12.938   1.454   5.758
  944SOL    HW2 3775  12.839   1.536   5.679
  944SOL     MW 3776  12.920   1.503   5.687
  945SOL     OW 3777  12.849   1.901   4.250
  945SOL    HW1 3778  12.754   1.915   4.242
  945SOL    HW2 3779  12.856   1.826   4.308
  945SOL     MW 3780  12.838   1.893   4.256
  946SOL     OW 3781  11.097   1.180   5.012
  946SOL    HW1 3782  11.032   1.221   5.070
  946SOL    HW2 3783  11.179   1.222   5.036
  946SOL     MW 3784  11.099   1.190   5.022
  947SOL     OW 3785  11.889   1.813   5.847
  947SOL    HW1 3786  11.904   1.763   5.928
  947SOL    HW2 3787  11.796   1.832   5.847
  947SOL     MW 3788  11.880   1.810   5.857
  948SOL     OW 3789  11.604   2.451   5.391
  948SOL    HW1 3790  11.690   2.434   5.432
  948SOL    HW2 3791  11.581   2.368   5.351
  948SOL     MW 3792  11.612   2.439   5.391
  949SOL     OW 3793  11.912   0.666   5.141
  949SOL    HW1 3794  11.840   0.603   5.145
  949SOL    HW2 3795  11.913   0.706   5.227
  949SOL     MW 3796  11.903   0.663   5.152
  950SOL     OW 3797  10.693   0.330   3.545
  950SOL    HW1 3798  10.689   0.402   3.609
  950SOL    HW2 3799  10.778   0.290   3.561
  950SOL     MW 3800  10.703   0.334   3.555
  951SOL     OW 3801  12.204   1.327   3.055
  951SOL    HW1 3802  12.132   1.343   3.117
  951SOL    HW2 3803  12.275   1.382   3.086
  951SOL     MW 3804  12.204   1.336   3.066
  952SOL     OW 3805  12.343   1.411   4.213
  952SOL    HW1 3806  12.331   1.354   4.289
  952SOL    HW2 3807  12.260   1.405   4.167
  952SOL     MW 3808  12.331   1.403   4.217
  953SOL     OW 3809  11.712   2.292   4.262
  953SOL    HW1 3810  11.632   2.319   4.216
  953SOL    HW2 3811  11.726   2.203   4.234
  953SOL     MW 3812  11.704   2.285   4.253
  954SOL     OW 3813  11.250   2.073   6.288
  954SOL    HW1 3814  11.315   2.088   6.220
  954SOL    HW2 3815  11.182   2.137   6.271
  954SOL     MW 3816  11.250   2.082   6.278
  955SOL     OW 3817  10.496   2.015   5.846
  955SOL    HW1 3818  10.493   2.085   5.912
  955SOL    HW2 3819  10.570   1.962   5.872
  955SOL     MW 3820  10.505   2.018   5.857
  956SOL     OW 3821  12.544   2.721   5.654
  956SOL    HW1 3822  12.590   2.703   5.737
  956SOL    HW2 3823  12.454   2.698   5.672
  956SOL     MW 3824  12.539   2.716   5.667
  957SOL     OW 3825  10.826   3.028   4.799
  957SOL    HW1 3826  10.843   3.106   4.745
  957SOL    HW2 3827  10.861   3.051   4.884
  957SOL     MW 3828  10.833   3.040   4.802
  958SOL     OW 3829  10.786   2.867   6.010
  958SOL    HW1 3830  10.758   2.947   5.965
  958SOL    HW2 3831  10.792   2.802   5.942
  958SOL     MW 3832  10.783   2.869   5.997
  959SOL     OW 3833  10.334   3.162   5.757
  959SOL    HW1 3834  10.341   3.178   5.662
  959SOL    HW2 3835  10.396   3.092   5.773
  959SOL     MW 3836  10.342   3.156   5.747
  960SOL     OW 3837  10.645   2.662   5.632
  960SOL    HW1 3838  10.616   2.601   5.564
  960SOL    HW2 3839  10.722   2.703   5.595
  960SOL     MW 3840  10.651   2.660   5.619
  961SOL     OW 3841  11.470   0.884   4.108
  961SOL    HW1 3842  11.455   0.913   4.017
  961SOL    HW2 3843  11.423   0.947   4.161
  961SOL     MW 3844  11.462   0.895   4.103
  962SOL     OW 3845  12.054   3.338   5.792
  962SOL    HW1 3846  11.989   3.322   5.723
  962SOL    HW2 3847  12.008   3.391   5.856
  962SOL     MW 3848  12.041   3.342   5.791
  963SOL     OW 3849  10.706   1.015   6.296
  963SOL    HW1 3850  10.766   0.948   6.259
  963SOL    HW2 3851  10.645   1.031   6.225
  963SOL     MW 3852  10.706   1.008   6.283
  964SOL     OW 3853  10.354   0.503   5.170
  964SOL    HW1 3854  10.428   0.542   5.123
  964SOL    HW2 3855  10.356   0.412   5.143
  964SOL     MW 3856  10.364   0.497   5.161
  965SOL     OW 3857  11.634   1.575   5.257
  965SOL    HW1 3858  11.715   1.628   5.258
  965SOL    HW2 3859  11.613   1.567   5.165
  965SOL     MW 3860  11.642   1.581   5.246
  966SOL     OW 3861  10.656   2.555   6.290
  966SOL    HW1 3862  10.633   2.624   6.353
  966SOL    HW2 3863  10.629   2.474   6.332
  966SOL     MW 3864  10.650   2.553   6.302
  967SOL     OW 3865  12.116   1.917   3.661
  967SOL    HW1 3866  12.051   1.868   3.712
  967SOL    HW2 3867  12.126   1.867   3.581
  967SOL     MW 3868  12.110   1.905   3.658
  968SOL     OW 3869  12.559   0.956   6.139
  968SOL    HW1 3870  12.554   0.955   6.235
  968SOL    HW2 3871  12.652   0.952   6.121
  968SOL     MW 3872  12.570   0.956   6.148
  969SOL     OW 3873  11.001   2.695   6.148
  969SOL    HW1 3874  10.950   2.773   6.123
  969SOL    HW2 3875  11.028   2.657   6.065
  969SOL     MW 3876  10.998   2.700   6.135
  970SOL     OW 3877  10.924   3.138   5.366
  970SOL    HW1 3878  10.979   3.086   5.306
  970SOL    HW2 3879  10.841   3.147   5.320
  970SOL     MW 3880  10.921   3.132   5.353
  971SOL     OW 3881  10.649   0.208   3.246
  971SOL    HW1 3882  10.566   0.173   3.279
  971SOL    HW2 3883  10.629   0.236   3.157
  971SOL     MW 3884  10.636   0.207   3.239
  972SOL     OW 3885  10.915   1.860   3.126
  972SOL    HW1 3886  10.858   1.870   3.050
  972SOL    HW2 3887  10.958   1.776   3.113
  972SOL     MW 3888  10.913   1.852   3.115
  973SOL     OW 3889  10.781   2.986   5.634
  973SOL    HW1 3890  10.785   2.983   5.730
  973SOL    HW2 3891  10.818   2.903   5.606
  973SOL     MW 3892  10.786   2.976   5.643
  974SOL     OW 3893  12.517   2.521   4.133
  974SOL    HW1 3894  12.511   2.527   4.229
  974SOL    HW2 3895  12.510   2.610   4.103
  974SOL     MW 3896  12.516   2.532   4.141
  975SOL     OW 3897  13.110   0.963   3.893
  975SOL    HW1 3898  13.060   0.977   3.812
  975SOL    HW2 3899  13.185   0.911   3.865
  975SOL     MW 3900  13.113   0.959   3.879
  976SOL     OW 3901  11.019   1.061   5.220
  976SOL    HW1 3902  11.114   1.048   5.206
  976SOL    HW2 3903  11.010   1.069   5.314
  976SOL     MW 3904  11.030   1.061   5.230
  977SOL     OW 3905  11.880   0.557   4.037
  977SOL    HW1 3906  11.858   0.650   4.050
  977SOL    HW2 3907  11.917   0.530   4.120
  977SOL     MW 3908  11.881   0.565   4.048
  978SOL     OW 3909  12.970   1.001   5.834
  978SOL    HW1 3910  13.040   1.052   5.876
  978SOL    HW2 3911  12.985   0.912   5.864
  978SOL     MW 3912  12.981   0.997   5.843
  979SOL     OW 3913  10.321   1.628   4.715
  979SOL    HW1 3914  10.362   1.697   4.662
  979SOL    HW2 3915  10.237   1.612   4.674
  979SOL     MW 3916  10.316   1.634   4.704
  980SOL     OW 3917  11.557   1.684   4.924
  980SOL    HW1 3918  11.583   1.761   4.975
  980SOL    HW2 3919  11.617   1.616   4.950
  980SOL     MW 3920  11.567   1.685   4.933
  981SOL     OW 3921  11.434   2.646   3.957
  981SOL    HW1 3922  11.369   2.575   3.951
  981SOL    HW2 3923  11.411   2.705   3.886
  981SOL     MW 3924  11.423   2.645   3.948
  982SOL     OW 3925  13.055   3.445   4.891
  982SOL    HW1 3926  13.088   3.406   4.809
  982SOL    HW2 3927  12.965   3.415   4.897
  982SOL     MW 3928  13.049   3.437   4.882
  983SOL     OW 3929  12.300   1.126   3.503
  983SOL    HW1 3930  12.334   1.047   3.461
  983SOL    HW2 3931  12.218   1.143   3.458
  983SOL     MW 3932  12.294   1.118   3.493
  984SOL     OW 3933  11.322   1.634   4.391
  984SOL    HW1 3934  11.281   1.583   4.462
  984SOL    HW2 3935  11.296   1.724   4.409
  984SOL     MW 3936  11.314   1.638   4.402
  985SOL     OW 3937  11.437   0.948   3.226
  985SOL    HW1 3938  11.495   0.991   3.289
  985SOL    HW2 3939  11.467   0.858   3.225
  985SOL     MW 3940  11.448   0.942   3.234
  986SOL     OW 3941  10.211   2.427   6.373
  986SOL    HW1 3942  10.175   2.482   6.303
  986SOL    HW2 3943  10.138   2.414   6.433
  986SOL     MW 3944  10.198   2.432   6.372
  987SOL     OW 3945  10.561   3.423   4.114
  987SOL    HW1 3946  10.545   3.437   4.020
  987SOL    HW2 3947  10.655   3.409   4.120
  987SOL     MW 3948  10.570   3.423   4.103
  988SOL     OW 3949  12.091   2.812   5.932
  988SOL    HW1 3950  12.087   2.872   6.007
  988SOL    HW2 3951  12.176   2.828   5.893
  988SOL     MW 3952  12.101   2.821   5.937
  989SOL     OW 3953  10.625   2.288   5.840
  989SOL    HW1 3954  10.671   2.212   5.877
  989SOL    HW2 3955  10.686   2.360   5.851
  989SOL     MW 3956  10.638   2.287   5.846
  990SOL     OW 3957  10.863   2.302   6.504
  990SOL    HW1 3958  10.767   2.292   6.510
  990SOL    HW2 3959  10.895   2.215   6.487
  990SOL     MW 3960  10.855   2.291   6.503
  991SOL     OW 3961  11.258   3.012   3.154
  991SOL    HW1 3962  11.285   2.951   3.223
  991SOL    HW2 3963  11.163   3.010   3.156
  991SOL     MW 3964  11.250   3.004   3.163
  992SOL     OW 3965  10.754   0.774   6.043
  992SOL    HW1 3966  10.692   0.701   6.035
  992SOL    HW2 3967  10.755   0.813   5.956
  992SOL     MW 3968  10.747   0.770   6.031
  993SOL     OW 3969  11.595   2.402   3.092
  993SOL    HW1 3970  11.511   2.424   3.050
  993SOL    HW2 3971  11.656   2.464   3.053
  993SOL     MW 3972  11.592   2.412   3.082
  994SOL     OW 3973  10.052   2.441   3.578
  994SOL    HW1 3974  10.120   2.430   3.510
  994SOL    HW2 3975  10.010   2.523   3.555
  994SOL     MW 3976  10.056   2.449   3.567
  995SOL     OW 3977  11.317   2.289   3.940
  995SOL    HW1 3978  11.321   2.365   3.999
  995SOL    HW2 3979  11.248   2.235   3.977
  995SOL     MW 3980  11.309   2.292   3.952
  996SOL     OW 3981  11.189   1.964   4.654
  996SOL    HW1 3982  11.221   1.887   4.606
  996SOL    HW2 3983  11.240   2.036   4.620
  996SOL     MW 3984  11.199   1.963   4.644
  997SOL     OW 3985  12.348   2.115   6.106
  997SOL    HW1 3986  12.351   2.020   6.097
  997SOL    HW2 3987  12.428   2.145   6.064
  997SOL     MW 3988  12.358   2.107   6.100
  998SOL     OW 3989  11.122   1.948   4.053
  998SOL    HW1 3990  11.170   1.997   4.120
  998SOL    HW2 3991  11.144   1.857   4.071
  998SOL     MW 3992  11.130   1.943   4.063
  999SOL     OW 3993  11.516   1.891   4.306
  999SOL    HW1 3994  11.578   1.837   4.255
  999SOL    HW2 3995  11.562   1.910   4.386
  999SOL     MW 3996  11.529   1.887   4.309
 1000SOL     OW 3997  10.422   1.885   3.090
 1000SOL    HW1 3998  10.474   1.814   3.050
 1000SOL    HW2 3999  10.474   1.914   3.163
 1000SOL     MW 4000  10.434   1.880   3.093
 1001SOL     OW 4001  12.699   3.098   5.204
 1001SOL    HW1 4002  12.752   3.056   5.136
 1001SOL    HW2 4003  12.723   3.190   5.199
 1001SOL     MW 4004  12.708   3.104   5.195
 1002SOL     OW 4005  13.074   2.841   3.049
 1002SOL    HW1 4006  13.025   2.895   3.113
 1002SOL    HW2 4007  13.158   2.827   3.090
 1002SOL     MW 4008  13.078   2.846   3.062
 1003SOL     OW 4009  10.720   1.709   3.464
 1003SOL    HW1 4010  10.681   1.788   3.503
 1003SOL    HW2 4011  10.786   1.682   3.526
 1003SOL     MW 4012  10.723   1.715   3.476
 1004SOL     OW 4013  11.064   2.966   6.142
 1004SOL    HW1 4014  11.147   3.000   6.108
 1004SOL    HW2 4015  11.005   3.040   6.139
 1004SOL     MW 4016  11.067   2.979   6.137
 1005SOL     OW 4017  11.177   1.520   4.146
 1005SOL    HW1 4018  11.090   1.558   4.160
 1005SOL    HW2 4019  11.236   1.580   4.189
 1005SOL     MW 4020  11.173   1.531   4.153
 1006SOL     OW 4021  12.981   2.082   5.170
 1006SOL    HW1 4022  12.979   2.040   5.084
 1006SOL    HW2 4023  13.071   2.112   5.179
 1006SOL     MW 4024  12.992   2.081   5.160
 1007SOL     OW 4025  11.165   2.966   4.097
 1007SOL    HW1 4026  11.147   2.875   4.072
 1007SOL    HW2 4027  11.248   2.962   4.142
 1007SOL     MW 4028  11.173   2.954   4.100
 1008SOL     OW 4029  12.481   1.881   4.156
 1008SOL    HW1 4030  12.567   1.837   4.149
 1008SOL    HW2 4031  12.429   1.842   4.087
 1008SOL     MW 4032  12.486   1.871   4.147
 1009SOL     OW 4033  10.274   1.114   4.177
 1009SOL    HW1 4034  10.343   1.148   4.120
 1009SOL    HW2 4035  10.195   1.118   4.124
 1009SOL     MW 4036  10.273   1.119   4.164
 1010SOL     OW 4037  12.956   2.970   3.333
 1010SOL    HW1 4038  12.882   2.979   3.272
 1010SOL    HW2 4039  12.979   2.878   3.328
 1010SOL     MW 4040  12.950   2.960   3.325
 1011SOL     OW 4041  13.335   0.224   3.744
 1011SOL    HW1 4042  13.295   0.312   3.751
 1011SOL    HW2 4043  13.329   0.188   3.832
 1011SOL     MW 4044  13.329   0.231   3.755
 1012SOL     OW 4045  13.096   0.164   6.465
 1012SOL    HW1 4046  13.072   0.171   6.372
 1012SOL    HW2 4047  13.049   0.234   6.508
 1012SOL     MW 4048  13.087   0.173   6.459
 1013SOL     OW 4049  11.590   2.722   4.966
 1013SOL    HW1 4050  11.599   2.818   4.970
 1013SOL    HW2 4051  11.597   2.703   4.873
 1013SOL     MW 4052  11.592   2.732   4.955
 1014SOL     OW 4053  10.192   3.009   6.164
 1014SOL    HW1 4054  10.212   2.917   6.182
 1014SOL    HW2 4055  10.257   3.057   6.215
 1014SOL     MW 4056  10.202   3.004   6.173
 1015SOL     OW 4057  12.445   2.457   3.092
 1015SOL    HW1 4058  12.368   2.486   3.043
 1015SOL    HW2 4059  12.417   2.375   3.131
 1015SOL     MW 4060  12.432   2.451   3.091
 1016SOL     OW 4061  12.963   3.187   5.664
 1016SOL    HW1 4062  12.935   3.121   5.729
 1016SOL    HW2 4063  12.923   3.267   5.693
 1016SOL     MW 4064  12.955   3.188   5.675
 1017SOL     OW 4065  12.282   1.372   4.503
 1017SOL    HW1 4066  12.272   1.419   4.587
 1017SOL    HW2 4067  12.371   1.339   4.505
 1017SOL     MW 4068  12.292   1.374   4.514
 1018SOL     OW 4069  12.246   0.854   5.161
 1018SOL    HW1 4070  12.253   0.871   5.067
 1018SOL    HW2 4071  12.286   0.930   5.202
 1018SOL     MW 4072  12.252   0.865   5.155
 1019SOL     OW 4073  11.370   1.983   3.654
 1019SOL    HW1 4074  11.453   1.937   3.638
 1019SOL    HW2 4075  11.304   1.920   3.631
 1019SOL     MW 4076  11.373   1.970   3.650
 1020SOL     OW 4077  10.775   0.409   6.125
 1020SOL    HW1 4078  10.753   0.498   6.095
 1020SOL    HW2 4079  10.833   0.376   6.058
 1020SOL     MW 4080  10.779   0.416   6.113
 1021SOL     OW 4081  12.467   2.077   4.588
 1021SOL    HW1 4082  12.407   2.119   4.525
 1021SOL    HW2 4083  12.461   1.985   4.567
 1021SOL     MW 4084  12.459   2.071   4.577
 1022SOL     OW 4085  10.927   1.881   6.007
 1022SOL    HW1 4086  11.011   1.916   6.039
 1022SOL    HW2 4087  10.936   1.787   6.014
 1022SOL     MW 4088  10.938   1.874   6.012
 1023SOL     OW 4089  12.167   1.439   5.497
 1023SOL    HW1 4090  12.168   1.524   5.541
 1023SOL    HW2 4091  12.255   1.406   5.506
 1023SOL     MW 4092  12.177   1.445   5.503
 1024SOL     OW 4093  10.103   2.644   3.765
 1024SOL    HW1 4094  10.010   2.625   3.750
 1024SOL    HW2 4095  10.109   2.662   3.858
 1024SOL     MW 4096  10.093   2.644   3.774
 1025SOL     OW 4097  11.744   1.974   3.118
 1025SOL    HW1 4098  11.655   1.946   3.095
 1025SOL    HW2 4099  11.767   2.036   3.050
 1025SOL     MW 4100  11.736   1.978   3.107
 1026SOL     OW 4101  10.211   1.450   6.209
 1026SOL    HW1 4102  10.142   1.387   6.185
 1026SOL    HW2 4103  10.292   1.403   6.193
 1026SOL     MW 4104  10.212   1.436   6.204
 1027SOL     OW 4105  11.281   3.062   5.244
 1027SOL    HW1 4106  11.368   3.103   5.258
 1027SOL    HW2 4107  11.237   3.072   5.328
 1027SOL     MW 4108  11.287   3.068   5.256
 1028SOL     OW 4109  12.347   2.615   5.975
 1028SOL    HW1 4110  12.409   2.688   5.974
 1028SOL    HW2 4111  12.307   2.619   6.062
 1028SOL     MW 4112  12.350   2.624   5.985
 1029SOL     OW 4113  10.813   1.820   5.784
 1029SOL    HW1 4114  10.823   1.733   5.746
 1029SOL    HW2 4115  10.735   1.813   5.839
 1029SOL     MW 4116  10.805   1.809   5.786
 1030SOL     OW 4117  10.356   3.277   4.160
 1030SOL    HW1 4118  10.361   3.320   4.074
 1030SOL    HW2 4119  10.324   3.190   4.140
 1030SOL     MW 4120  10.352   3.272   4.147
 1031SOL     OW 4121  12.752   1.116   6.383
 1031SOL    HW1 4122  12.728   1.193   6.331
 1031SOL    HW2 4123  12.732   1.141   6.472
 1031SOL     MW 4124  12.747   1.128   6.387
 1032SOL     OW 4125  12.114   2.316   5.692
 1032SOL    HW1 4126  12.061   2.237   5.712
 1032SOL    HW2 4127  12.050   2.385   5.682
 1032SOL     MW 4128  12.100   2.314   5.694
 1033SOL     OW 4129  10.748   3.120   6.277
 1033SOL    HW1 4130  10.675   3.116   6.340
 1033SOL    HW2 4131  10.788   3.204   6.293
 1033SOL     MW 4132  10.744   3.129   6.286
 1034SOL     OW 4133  10.387   0.195   5.358
 1034SOL    HW1 4134  10.476   0.209   5.390
 1034SOL    HW2 4135  10.337   0.174   5.435
 1034SOL     MW 4136  10.392   0.194   5.371
 1035SOL     OW 4137  10.606   2.252   4.567
 1035SOL    HW1 4138  10.631   2.224   4.655
 1035SOL    HW2 4139  10.538   2.191   4.541
 1035SOL     MW 4140  10.601   2.241   4.575
 1036SOL     OW 4141  12.318   0.778   3.971
 1036SOL    HW1 4142  12.396   0.765   3.917
 1036SOL    HW2 4143  12.282   0.861   3.941
 1036SOL     MW 4144  12.323   0.786   3.961
 1037SOL     OW 4145  12.099   3.163   4.742
 1037SOL    HW1 4146  12.107   3.124   4.830
 1037SOL    HW2 4147  12.179   3.214   4.733
 1037SOL     MW 4148  12.109   3.164   4.752
 1038SOL     OW 4149  11.927   3.384   6.167
 1038SOL    HW1 4150  11.855   3.392   6.104
 1038SOL    HW2 4151  11.920   3.295   6.200
 1038SOL     MW 4152  11.917   3.374   6.163
 1039SOL     OW 4153  11.858   1.711   5.112
 1039SOL    HW1 4154  11.901   1.627   5.130
 1039SOL    HW2 4155  11.830   1.704   5.022
 1039SOL     MW 4156  11.860   1.700   5.104
 1040SOL     OW 4157  12.535   1.858   3.250
 1040SOL    HW1 4158  12.535   1.784   3.312
 1040SOL    HW2 4159  12.457   1.907   3.271
 1040SOL     MW 4160  12.526   1.855   3.260
 1041SOL     OW 4161  10.890   0.146   5.903
 1041SOL    HW1 4162  10.839   0.076   5.860
 1041SOL    HW2 4163  10.836   0.171   5.977
 1041SOL     MW 4164  10.877   0.140   5.906
 1042SOL     OW 4165  10.013   0.758   3.442
 1042SOL    HW1 4166  10.009   0.665   3.467
 1042SOL    HW2 4167  10.060   0.757   3.359
 1042SOL     MW 4168  10.018   0.746   3.435
 1043SOL     OW 4169  12.002   2.723   5.057
 1043SOL    HW1 4170  12.056   2.757   4.985
 1043SOL    HW2 4171  11.913   2.727   5.025
 1043SOL     MW 4172  11.998   2.727   5.045
 1044SOL     OW 4173  13.017   0.143   4.231
 1044SOL    HW1 4174  13.091   0.173   4.178
 1044SOL    HW2 4175  13.021   0.048   4.225
 1044SOL     MW 4176  13.026   0.135   4.224
 1045SOL     OW 4177  10.038   2.669   4.266
 1045SOL    HW1 4178  10.070   2.659   4.175
 1045SOL    HW2 4179  10.057   2.760   4.287
 1045SOL     MW 4180  10.044   2.679   4.257
 1046SOL     OW 4181  12.403   3.192   5.244
 1046SOL    HW1 4182  12.374   3.157   5.159
 1046SOL    HW2 4183  12.484   3.146   5.261
 1046SOL     MW 4184  12.409   3.182   5.235
 1047SOL     OW 4185  10.506   2.360   3.830
 1047SOL    HW1 4186  10.575   2.411   3.874
 1047SOL    HW2 4187  10.539   2.271   3.831
 1047SOL     MW 4188  10.518   2.355   3.836
 1048SOL     OW 4189  10.175   2.464   4.666
 1048SOL    HW1 4190  10.173   2.380   4.617
 1048SOL    HW2 4191  10.099   2.510   4.633
 1048SOL     MW 4192  10.165   2.459   4.656
 1049SOL     OW 4193  11.468   2.803   5.183
 1049SOL    HW1 4194  11.418   2.854   5.247
 1049SOL    HW2 4195  11.559   2.816   5.207
 1049SOL     MW 4196  11.473   2.810   5.193
 1050SOL     OW 4197  12.634   1.613   6.095
 1050SOL    HW1 4198  12.579   1.538   6.072
 1050SOL    HW2 4199  12.673   1.639   6.012
 1050SOL     MW 4200  12.632   1.607   6.082
 1051SOL     OW 4201  11.887   1.546   4.379
 1051SOL    HW1 4202  11.975   1.586   4.377
 1051SOL    HW2 4203  11.861   1.553   4.470
 1051SOL     MW 4204  11.895   1.551   4.390
 1052SOL     OW 4205  10.712   1.956   4.544
 1052SOL    HW1 4206  10.790   1.926   4.496
 1052SOL    HW2 4207  10.702   2.047   4.519
 1052SOL     MW 4208  10.720   1.963   4.535
 1053SOL     OW 4209  11.680   0.454   5.685
 1053SOL    HW1 4210  11.681   0.543   5.721
 1053SOL    HW2 4211  11.697   0.398   5.760
 1053SOL     MW 4212  11.682   0.458   5.698
 1054SOL     OW 4213  11.734   1.390   3.938
 1054SOL    HW1 4214  11.733   1.293   3.933
 1054SOL    HW2 4215  11.801   1.416   3.876
 1054SOL     MW 4216  11.742   1.381   3.930
 1055SOL     OW 4217  11.950   1.252   3.201
 1055SOL    HW1 4218  11.973   1.161   3.179
 1055SOL    HW2 4219  11.996   1.269   3.282
 1055SOL     MW 4220  11.958   1.243   3.207
 1056SOL     OW 4221  11.741   0.273   5.066
 1056SOL    HW1 4222  11.695   0.194   5.035
 1056SOL    HW2 4223  11.799   0.241   5.134
 1056SOL     MW 4224  11.742   0.260   5.070
 1057SOL     OW 4225  12.854   2.397   3.191
 1057SOL    HW1 4226  12.833   2.389   3.285
 1057SOL    HW2 4227  12.947   2.380   3.187
 1057SOL     MW 4228  12.862   2.394   3.202
 1058SOL     OW 4229  11.632   0.961   3.069
 1058SOL    HW1 4230  11.555   1.018   3.054
 1058SOL    HW2 4231  11.706   1.015   3.045
 1058SOL     MW 4232  11.631   0.974   3.065
 1059SOL     OW 4233  11.850   0.343   5.919
 1059SOL    HW1 4234  11.774   0.322   5.973
 1059SOL    HW2 4235  11.908   0.389   5.978
 1059SOL     MW 4236  11.848   0.346   5.932
 1060SOL     OW 4237  11.054   2.100   5.756
 1060SOL    HW1 4238  11.107   2.086   5.835
 1060SOL    HW2 4239  11.105   2.061   5.686
 1060SOL     MW 4240  11.067   2.094   5.757
 1061SOL     OW 4241  11.769   0.158   3.758
 1061SOL    HW1 4242  11.763   0.177   3.852
 1061SOL    HW2 4243  11.720   0.077   3.748
 1061SOL     MW 4244  11.762   0.151   3.768
 1062SOL     OW 4245  12.253   2.853   4.464
 1062SOL    HW1 4246  12.184   2.859   4.398
 1062SOL    HW2 4247  12.248   2.935   4.512
 1062SOL     MW 4248  12.244   2.864   4.462
 1063SOL     OW 4249  12.083   3.002   5.341
 1063SOL    HW1 4250  12.170   2.971   5.316
 1063SOL    HW2 4251  12.074   3.085   5.297
 1063SOL     MW 4252  12.092   3.008   5.333
 1064SOL     OW 4253  10.076   3.249   3.125
 1064SOL    HW1 4254  10.009   3.279   3.187
 1064SOL    HW2 4255  10.150   3.306   3.142
 1064SOL     MW 4256  10.077   3.260   3.135
 1065SOL     OW 4257  11.165   2.195   5.289
 1065SOL    HW1 4258  11.214   2.264   5.244
 1065SOL    HW2 4259  11.074   2.215   5.270
 1065SOL     MW 4260  11.160   2.206   5.281
 1066SOL     OW 4261  10.414   2.552   3.923
 1066SOL    HW1 4262  10.432   2.647   3.928
 1066SOL    HW2 4263  10.326   2.543   3.959
 1066SOL     MW 4264  10.406   2.563   3.928
 1067SOL     OW 4265  12.477   1.035   5.164
 1067SOL    HW1 4266  12.499   1.052   5.256
 1067SOL    HW2 4267  12.543   1.082   5.115
 1067SOL     MW 4268  12.487   1.043   5.169
 1068SOL     OW 4269  12.760   3.366   4.506
 1068SOL    HW1 4270  12.777   3.367   4.411
 1068SOL    HW2 4271  12.817   3.433   4.541
 1068SOL     MW 4272  12.769   3.374   4.498
 1069SOL     OW 4273  11.002   3.078   3.515
 1069SOL    HW1 4274  11.038   3.069   3.604
 1069SOL    HW2 4275  10.931   3.015   3.512
 1069SOL     MW 4276  10.998   3.070   3.526
 1070SOL     OW 4277  10.072   0.370   5.041
 1070SOL    HW1 4278  10.009   0.438   5.017
 1070SOL    HW2 4279  10.150   0.418   5.065
 1070SOL     MW 4280  10.074   0.384   5.041
 1071SOL     OW 4281  10.089   1.450   5.978
 1071SOL    HW1 4282  10.102   1.414   5.890
 1071SOL    HW2 4283  10.169   1.497   5.997
 1071SOL     MW 4284  10.100   1.452   5.970
 1072SOL     OW 4285  11.842   1.975   3.494
 1072SOL    HW1 4286  11.934   1.945   3.490
 1072SOL    HW2 4287  11.801   1.916   3.556
 1072SOL     MW 4288  11.849   1.964   3.501
 1073SOL     OW 4289  13.304   1.332   3.419
 1073SOL    HW1 4290  13.314   1.405   3.481
 1073SOL    HW2 4291  13.340   1.257   3.466
 1073SOL     MW 4292  13.310   1.332   3.432
 1074SOL     OW 4293  11.594   2.215   3.668
 1074SOL    HW1 4294  11.506   2.255   3.673
 1074SOL    HW2 4295  11.653   2.288   3.681
 1074SOL     MW 4296  11.590   2.228   3.670
 1075SOL     OW 4297  11.992   0.370   5.234
 1075SOL    HW1 4298  11.939   0.330   5.303
 1075SOL    HW2 4299  11.979   0.464   5.245
 1075SOL     MW 4300  11.984   0.377   5.244
 1076SOL     OW 4301  11.627   0.113   3.506
 1076SOL    HW1 4302  11.572   0.185   3.474
 1076SOL    HW2 4303  11.579   0.077   3.579
 1076SOL     MW 4304  11.615   0.117   3.511
 1077SOL     OW 4305  10.687   2.770   4.446
 1077SOL    HW1 4306  10.630   2.848   4.445
 1077SOL    HW2 4307  10.766   2.799   4.491
 1077SOL     MW 4308  10.690   2.783   4.451
 1078SOL     OW 4309  12.661   0.883   5.155
 1078SOL    HW1 4310  12.723   0.952   5.130
 1078SOL    HW2 4311  12.623   0.854   5.073
 1078SOL     MW 4312  12.664   0.888   5.142
 1079SOL     OW 4313  12.677   3.000   5.654
 1079SOL    HW1 4314  12.736   3.026   5.726
 1079SOL    HW2 4315  12.658   2.909   5.672
 1079SOL     MW 4316  12.682   2.992   5.665
 1080SOL     OW 4317  11.117   3.316   6.006
 1080SOL    HW1 4318  11.044   3.260   6.036
 1080SOL    HW2 4319  11.105   3.397   6.054
 1080SOL     MW 4320  11.106   3.319   6.016
 1081SOL     OW 4321  12.312   0.078   4.782
 1081SOL    HW1 4322  12.260   0.081   4.700
 1081SOL    HW2 4323  12.382   0.017   4.762
 1081SOL     MW 4324  12.314   0.071   4.770
 1082SOL     OW 4325  12.731   0.223   3.284
 1082SOL    HW1 4326  12.727   0.133   3.317
 1082SOL    HW2 4327  12.809   0.226   3.230
 1082SOL     MW 4328  12.739   0.212   3.282
 1083SOL     OW 4329  10.723   3.085   4.561
 1083SOL    HW1 4330  10.676   3.060   4.482
 1083SOL    HW2 4331  10.679   3.163   4.591
 1083SOL     MW 4332  10.712   3.091   4.555
 1084SOL     OW 4333  11.400   0.982   4.880
 1084SOL    HW1 4334  11.452   0.917   4.832
 1084SOL    HW2 4335  11.430   1.066   4.846
 1084SOL     MW 4336  11.410   0.984   4.870
 1085SOL     OW 4337  12.340   0.464   5.617
 1085SOL    HW1 4338  12.387   0.390   5.658
 1085SOL    HW2 4339  12.300   0.510   5.689
 1085SOL     MW 4340  12.341   0.460   5.630
 1086SOL     OW 4341  12.734   0.626   4.983
 1086SOL    HW1 4342  12.670   0.559   4.960
 1086SOL    HW2 4343  12.818   0.581   4.980
 1086SOL     MW 4344  12.736   0.613   4.980
 1087SOL     OW 4345  10.137   1.576   4.990
 1087SOL    HW1 4346  10.217   1.610   4.948
 1087SOL    HW2 4347  10.069   1.635   4.963
 1087SOL     MW 4348  10.139   1.587   4.982
 1088SOL     OW 4349  10.596   1.298   4.237
 1088SOL    HW1 4350  10.534   1.260   4.301
 1088SOL    HW2 4351  10.594   1.391   4.254
 1088SOL     MW 4352  10.588   1.304   4.247
 1089SOL     OW 4353  10.948   2.733   5.658
 1089SOL    HW1 4354  10.982   2.761   5.743
 1089SOL    HW2 4355  10.968   2.640   5.654
 1089SOL     MW 4356  10.955   2.725   5.668
 1090SOL     OW 4357  11.950   1.443   6.024
 1090SOL    HW1 4358  11.903   1.509   5.972
 1090SOL    HW2 4359  11.889   1.370   6.029
 1090SOL     MW 4360  11.937   1.442   6.018
 1091SOL     OW 4361  13.341   1.441   4.113
 1091SOL    HW1 4362  13.300   1.528   4.101
 1091SOL    HW2 4363  13.297   1.406   4.190
 1091SOL     MW 4364  13.331   1.448   4.121
 1092SOL     OW 4365  12.192   2.844   4.802
 1092SOL    HW1 4366  12.241   2.897   4.738
 1092SOL    HW2 4367  12.133   2.906   4.843
 1092SOL     MW 4368  12.191   2.858   4.799
 1093SOL     OW 4369  12.976   0.950   6.179
 1093SOL    HW1 4370  12.971   0.971   6.085
 1093SOL    HW2 4371  12.888   0.965   6.211
 1093SOL     MW 4372  12.965   0.955   6.171
 1094SOL     OW 4373  10.517   2.999   5.615
 1094SOL    HW1 4374  10.572   2.920   5.612
 1094SOL    HW2 4375  10.579   3.071   5.615
 1094SOL     MW 4376  10.531   2.998   5.615
 1095SOL     OW 4377  10.501   3.427   5.458
 1095SOL    HW1 4378  10.510   3.460   5.368
 1095SOL    HW2 4379  10.590   3.420   5.489
 1095SOL     MW 4380  10.513   3.430   5.451
 1096SOL     OW 4381  13.261   1.338   5.313
 1096SOL    HW1 4382  13.244   1.408   5.250
 1096SOL    HW2 4383  13.341   1.297   5.281
 1096SOL     MW 4384  13.269   1.342   5.301
 1097SOL     OW 4385  11.462   3.167   4.094
 1097SOL    HW1 4386  11.377   3.208   4.072
 1097SOL    HW2 4387  11.493   3.134   4.010
 1097SOL     MW 4388  11.455   3.168   4.081
 1098SOL     OW 4389  12.061   1.941   4.093
 1098SOL    HW1 4390  12.018   1.854   4.091
 1098SOL    HW2 4391  12.080   1.960   4.002
 1098SOL     MW 4392  12.058   1.932   4.082
 1099SOL     OW 4393  12.486   3.301   4.001
 1099SOL    HW1 4394  12.491   3.336   3.912
 1099SOL    HW2 4395  12.395   3.281   4.014
 1099SOL     MW 4396  12.476   3.303   3.992
 1100SOL     OW 4397  10.664   1.620   5.525
 1100SOL    HW1 4398  10.680   1.623   5.620
 1100SOL    HW2 4399  10.571   1.603   5.517
 1100SOL     MW 4400  10.655   1.619   5.536
 1101SOL     OW 4401  11.793   0.502   4.647
 1101SOL    HW1 4402  11.774   0.515   4.554
 1101SOL    HW2 4403  11.842   0.579   4.672
 1101SOL     MW 4404  11.797   0.513   4.639
 1102SOL     OW 4405  11.216   1.500   3.930
 1102SOL    HW1 4406  11.257   1.585   3.947
 1102SOL    HW2 4407  11.163   1.515   3.853
 1102SOL     MW 4408  11.215   1.512   3.923
 1103SOL     OW 4409  11.371   1.443   3.114
 1103SOL    HW1 4410  11.421   1.397   3.046
 1103SOL    HW2 4411  11.336   1.519   3.070
 1103SOL     MW 4412  11.373   1.446   3.101
 1104SOL     OW 4413  13.105   0.839   3.589
 1104SOL    HW1 4414  13.024   0.841   3.640
 1104SOL    HW2 4415  13.161   0.904   3.630
 1104SOL     MW 4416  13.102   0.847   3.600
 1105SOL     OW 4417  11.582   0.328   5.220
 1105SOL    HW1 4418  11.493   0.361   5.208
 1105SOL    HW2 4419  11.637   0.405   5.212
 1105SOL     MW 4420  11.578   0.341   5.218
 1106SOL     OW 4421  13.336   1.004   4.067
 1106SOL    HW1 4422  13.263   1.051   4.025
 1106SOL    HW2 4423  13.340   0.921   4.021
 1106SOL     MW 4424  13.327   1.000   4.056
 1107SOL     OW 4425  13.224   2.945   6.123
 1107SOL    HW1 4426  13.213   2.904   6.037
 1107SOL    HW2 4427  13.315   2.970   6.126
 1107SOL     MW 4428  13.233   2.943   6.113
 1108SOL     OW 4429  11.128   2.948   4.458
 1108SOL    HW1 4430  11.193   2.923   4.525
 1108SOL    HW2 4431  11.046   2.915   4.491
 1108SOL     MW 4432  11.126   2.941   4.470
 1109SOL     OW 4433  11.120   1.050   5.891
 1109SOL    HW1 4434  11.148   1.026   5.802
 1109SOL    HW2 4435  11.130   1.144   5.894
 1109SOL     MW 4436  11.125   1.058   5.881
 1110SOL     OW 4437  10.617   3.324   5.685
 1110SOL    HW1 4438  10.534   3.285   5.655
 1110SOL    HW2 4439  10.682   3.259   5.664
 1110SOL     MW 4440  10.615   3.312   5.679
 1111SOL     OW 4441  11.645   3.430   4.421
 1111SOL    HW1 4442  11.736   3.460   4.407
 1111SOL    HW2 4443  11.599   3.460   4.344
 1111SOL     MW 4444  11.651   3.437   4.410
 1112SOL     OW 4445  11.005   3.341   4.306
 1112SOL    HW1 4446  10.991   3.374   4.395
 1112SOL    HW2 4447  10.934   3.378   4.255
 1112SOL     MW 4448  10.995   3.350   4.311
 1113SOL     OW 4449  12.200   0.703   3.705
 1113SOL    HW1 4450  12.281   0.709   3.652
 1113SOL    HW2 4451  12.131   0.719   3.642
 1113SOL     MW 4452  12.202   0.706   3.691
 1114SOL     OW 4453  11.748   3.354   5.482
 1114SOL    HW1 4454  11.736   3.432   5.537
 1114SOL    HW2 4455  11.712   3.379   5.398
 1114SOL     MW 4456  11.742   3.366   5.479
 1115SOL     OW 4457  12.712   2.016   5.054
 1115SOL    HW1 4458  12.672   1.931   5.076
 1115SOL    HW2 4459  12.783   1.993   4.995
 1115SOL     MW 4460  12.716   2.003   5.050
 1116SOL     OW 4461  10.382   3.283   3.545
 1116SOL    HW1 4462  10.416   3.306   3.631
 1116SOL    HW2 4463  10.458   3.253   3.497
 1116SOL     MW 4464  10.395   3.282   3.549
 1117SOL     OW 4465  10.966   0.540   5.830
 1117SOL    HW1 4466  11.007   0.530   5.917
 1117SOL    HW2 4467  10.950   0.633   5.823
 1117SOL     MW 4468  10.969   0.550   5.840
 1118SOL     OW 4469  13.050   2.595   3.896
 1118SOL    HW1 4470  13.104   2.580   3.974
 1118SOL    HW2 4471  12.962   2.573   3.924
 1118SOL     MW 4472  13.046   2.591   3.909
 1119SOL     OW 4473  11.884   1.109   4.434
 1119SOL    HW1 4474  11.871   1.155   4.350
 1119SOL    HW2 4475  11.798   1.111   4.475
 1119SOL     MW 4476  11.872   1.115   4.429
 1120SOL     OW 4477  11.663   2.833   3.893
 1120SOL    HW1 4478  11.604   2.842   3.818
 1120SOL    HW2 4479  11.642   2.747   3.929
 1120SOL     MW 4480  11.653   2.824   3.888
 1121SOL     OW 4481  10.970   0.784   5.119
 1121SOL    HW1 4482  10.879   0.803   5.146
 1121SOL    HW2 4483  11.023   0.834   5.179
 1121SOL     MW 4484  10.965   0.792   5.129
 1122SOL     OW 4485  10.218   3.414   5.630
 1122SOL    HW1 4486  10.185   3.460   5.708
 1122SOL    HW2 4487  10.177   3.459   5.557
 1122SOL     MW 4488  10.209   3.425   5.631
 1123SOL     OW 4489  10.636   0.798   5.617
 1123SOL    HW1 4490  10.631   0.892   5.635
 1123SOL    HW2 4491  10.556   0.780   5.568
 1123SOL     MW 4492  10.626   0.807   5.614
 1124SOL     OW 4493  11.557   1.213   4.178
 1124SOL    HW1 4494  11.593   1.275   4.113
 1124SOL    HW2 4495  11.464   1.211   4.159
 1124SOL     MW 4496  11.551   1.220   4.168
 1125SOL     OW 4497  11.546   0.222   5.880
 1125SOL    HW1 4498  11.502   0.158   5.937
 1125SOL    HW2 4499  11.503   0.211   5.796
 1125SOL     MW 4500  11.536   0.213   5.877
 1126SOL     OW 4501  11.176   3.085   3.901
 1126SOL    HW1 4502  11.266   3.067   3.930
 1126SOL    HW2 4503  11.185   3.158   3.840
 1126SOL     MW 4504  11.188   3.092   3.898
 1127SOL     OW 4505  10.392   2.660   5.636
 1127SOL    HW1 4506  10.442   2.700   5.708
 1127SOL    HW2 4507  10.412   2.568   5.642
 1127SOL     MW 4508  10.400   2.654   5.646
 1128SOL     OW 4509  11.849   1.045   5.012
 1128SOL    HW1 4510  11.915   1.077   4.951
 1128SOL    HW2 4511  11.768   1.049   4.963
 1128SOL     MW 4512  11.847   1.049   4.999
 1129SOL     OW 4513  10.237   1.887   6.465
 1129SOL    HW1 4514  10.258   1.922   6.378
 1129SOL    HW2 4515  10.196   1.959   6.510
 1129SOL     MW 4516  10.235   1.900   6.459
 1130SOL     OW 4517  13.022   0.397   3.697
 1130SOL    HW1 4518  13.077   0.337   3.747
 1130SOL    HW2 4519  12.934   0.367   3.711
 1130SOL     MW 4520  13.018   0.386   3.705
 1131SOL     OW 4521  10.853   3.254   3.361
 1131SOL    HW1 4522  10.877   3.161   3.354
 1131SOL    HW2 4523  10.865   3.275   3.453
 1131SOL     MW 4524  10.857   3.246   3.371
 1132SOL     OW 4525  11.282   3.128   5.897
 1132SOL    HW1 4526  11.235   3.142   5.815
 1132SOL    HW2 4527  11.367   3.096   5.870
 1132SOL     MW 4528  11.286   3.126   5.884
 1133SOL     OW 4529  10.183   2.740   5.814
 1133SOL    HW1 4530  10.271   2.743   5.852
 1133SOL    HW2 4531  10.198   2.718   5.722
 1133SOL     MW 4532  10.195   2.737   5.808
 1134SOL     OW 4533  11.577   1.366   4.731
 1134SOL    HW1 4534  11.582   1.419   4.811
 1134SOL    HW2 4535  11.535   1.422   4.667
 1134SOL     MW 4536  11.573   1.379   4.733
 1135SOL     OW 4537  11.469   1.348   3.947
 1135SOL    HW1 4538  11.440   1.427   3.899
 1135SOL    HW2 4539  11.445   1.276   3.890
 1135SOL     MW 4540  11.463   1.349   3.934
 1136SOL     OW 4541  12.415   2.606   4.549
 1136SOL    HW1 4542  12.500   2.569   4.572
 1136SOL    HW2 4543  12.428   2.700   4.553
 1136SOL     MW 4544  12.427   2.613   4.552
 1137SOL     OW 4545  12.361   0.356   4.238
 1137SOL    HW1 4546  12.352   0.295   4.312
 1137SOL    HW2 4547  12.277   0.350   4.193
 1137SOL     MW 4548  12.350   0.348   4.242
 1138SOL     OW 4549  11.342   1.864   3.840
 1138SOL    HW1 4550  11.338   1.770   3.860
 1138SOL    HW2 4551  11.264   1.900   3.880
 1138SOL     MW 4552  11.332   1.857   3.847
 1139SOL     OW 4553  11.567   2.846   5.746
 1139SOL    HW1 4554  11.614   2.865   5.664
 1139SOL    HW2 4555  11.621   2.781   5.789
 1139SOL     MW 4556  11.579   2.840   5.741
 1140SOL     OW 4557  12.951   2.721   4.522
 1140SOL    HW1 4558  12.913   2.799   4.481
 1140SOL    HW2 4559  12.898   2.650   4.489
 1140SOL     MW 4560  12.940   2.722   4.513
 1141SOL     OW 4561  12.748   1.518   4.840
 1141SOL    HW1 4562  12.696   1.493   4.763
 1141SOL    HW2 4563  12.691   1.578   4.888
 1141SOL     MW 4564  12.735   1.522   4.837
 1142SOL     OW 4565  13.328   2.122   6.015
 1142SOL    HW1 4566  13.262   2.119   6.085
 1142SOL    HW2 4567  13.314   2.206   5.973
 1142SOL     MW 4568  13.318   2.132   6.018
 1143SOL     OW 4569  10.410   1.462   3.854
 1143SOL    HW1 4570  10.502   1.486   3.868
 1143SOL    HW2 4571  10.398   1.471   3.760
 1143SOL     MW 4572  10.420   1.466   3.844
 1144SOL     OW 4573  12.089   3.205   4.284
 1144SOL    HW1 4574  12.036   3.178   4.208
 1144SOL    HW2 4575  12.168   3.153   4.276
 1144SOL     MW 4576  12.092   3.196   4.274
 1145SOL     OW 4577  12.458   1.741   6.127
 1145SOL    HW1 4578  12.479   1.790   6.208
 1145SOL    HW2 4579  12.443   1.809   6.062
 1145SOL     MW 4580  12.459   1.755   6.129
 1146SOL     OW 4581  10.955   1.974   5.491
 1146SOL    HW1 4582  10.949   2.007   5.401
 1146SOL    HW2 4583  10.866   1.946   5.511
 1146SOL     MW 4584  10.944   1.974   5.482
 1147SOL     OW 4585  10.485   1.525   4.117
 1147SOL    HW1 4586  10.409   1.491   4.167
 1147SOL    HW2 4587  10.448   1.591   4.060
 1147SOL     MW 4588  10.471   1.528   4.117
 1148SOL     OW 4589  12.502   2.333   4.331
 1148SOL    HW1 4590  12.445   2.380   4.392
 1148SOL    HW2 4591  12.525   2.253   4.377
 1148SOL     MW 4592  12.498   2.329   4.344
 1149SOL     OW 4593  12.385   2.416   6.160
 1149SOL    HW1 4594  12.459   2.436   6.219
 1149SOL    HW2 4595  12.309   2.451   6.204
 1149SOL     MW 4596  12.385   2.422   6.172
 1150SOL     OW 4597  11.981   2.635   4.093
 1150SOL    HW1 4598  11.967   2.697   4.165
 1150SOL    HW2 4599  12.076   2.628   4.088
 1150SOL     MW 4600  11.991   2.642   4.101
 1151SOL     OW 4601  11.774   3.371   6.345
 1151SOL    HW1 4602  11.750   3.420   6.424
 1151SOL    HW2 4603  11.697   3.379   6.289
 1151SOL     MW 4604  11.762   3.378   6.348
 1152SOL     OW 4605  12.193   1.674   3.126
 1152SOL    HW1 4606  12.167   1.588   3.091
 1152SOL    HW2 4607  12.287   1.669   3.133
 1152SOL     MW 4608  12.201   1.663   3.122
 1153SOL     OW 4609  10.145   1.946   4.530
 1153SOL    HW1 4610  10.066   1.965   4.478
 1153SOL    HW2 4611  10.205   2.016   4.509
 1153SOL     MW 4612  10.142   1.957   4.521
 1154SOL     OW 4613  12.745   0.005   5.791
 1154SOL    HW1 4614  12.740   0.065   5.716
 1154SOL    HW2 4615  12.657   0.004   5.827
 1154SOL     MW 4616  12.733   0.012   5.786
 1155SOL     OW 4617  11.739   1.955   4.007
 1155SOL    HW1 4618  11.718   1.984   4.096
 1155SOL    HW2 4619  11.816   1.901   4.018
 1155SOL     MW 4620  11.745   1.952   4.019
 1156SOL     OW 4621  10.845   1.934   3.706
 1156SOL    HW1 4622  10.928   1.982   3.698
 1156SOL    HW2 4623  10.835   1.890   3.622
 1156SOL     MW 4624  10.854   1.934   3.695
 1157SOL     OW 4625  12.343   3.428   3.608
 1157SOL    HW1 4626  12.296   3.460   3.530
 1157SOL    HW2 4627  12.385   3.348   3.578
 1157SOL     MW 4628  12.343   3.422   3.595
 1158SOL     OW 4629  11.883   2.201   4.690
 1158SOL    HW1 4630  11.854   2.131   4.749
 1158SOL    HW2 4631  11.828   2.275   4.713
 1158SOL     MW 4632  11.873   2.202   4.700
 1159SOL     OW 4633  10.929   3.210   5.096
 1159SOL    HW1 4634  10.983   3.193   5.018
 1159SOL    HW2 4635  10.854   3.258   5.062
 1159SOL     MW 4636  10.926   3.214   5.083
 1160SOL     OW 4637  11.050   0.714   6.038
 1160SOL    HW1 4638  10.969   0.744   6.081
 1160SOL    HW2 4639  11.119   0.744   6.095
 1160SOL     MW 4640  11.048   0.721   6.050
 1161SOL     OW 4641  10.814   2.318   4.543
 1161SOL    HW1 4642  10.816   2.364   4.459
 1161SOL    HW2 4643  10.835   2.385   4.607
 1161SOL     MW 4644  10.817   2.331   4.540
 1162SOL     OW 4645  11.913   0.135   4.253
 1162SOL    HW1 4646  11.882   0.204   4.313
 1162SOL    HW2 4647  11.955   0.072   4.309
 1162SOL     MW 4648  11.914   0.136   4.267
 1163SOL     OW 4649  10.608   0.467   3.135
 1163SOL    HW1 4650  10.618   0.426   3.048
 1163SOL    HW2 4651  10.518   0.449   3.158
 1163SOL     MW 4652  10.599   0.460   3.127
 1164SOL     OW 4653  10.756   0.272   5.003
 1164SOL    HW1 4654  10.777   0.186   5.039
 1164SOL    HW2 4655  10.700   0.254   4.929
 1164SOL     MW 4656  10.752   0.260   4.998
 1165SOL     OW 4657  11.830   0.070   6.419
 1165SOL    HW1 4658  11.818   0.146   6.477
 1165SOL    HW2 4659  11.781   0.093   6.341
 1165SOL     MW 4660  11.822   0.082   6.417
 1166SOL     OW 4661  10.106   0.506   5.418
 1166SOL    HW1 4662  10.154   0.427   5.444
 1166SOL    HW2 4663  10.032   0.473   5.369
 1166SOL     MW 4664  10.103   0.492   5.416
 1167SOL     OW 4665  12.806   0.578   5.818
 1167SOL    HW1 4666  12.859   0.520   5.873
 1167SOL    HW2 4667  12.729   0.526   5.796
 1167SOL     MW 4668  12.803   0.565   5.822
 1168SOL     OW 4669  13.023   1.187   3.071
 1168SOL    HW1 4670  13.046   1.279   3.054
 1168SOL    HW2 4671  13.101   1.150   3.110
 1168SOL     MW 4672  13.035   1.194   3.074
 1169SOL     OW 4673  12.720   3.435   5.999
 1169SOL    HW1 4674  12.804   3.455   6.041
 1169SOL    HW2 4675  12.707   3.342   6.015
 1169SOL     MW 4676  12.729   3.426   6.006
 1170SOL     OW 4677  10.733   1.247   5.882
 1170SOL    HW1 4678  10.810   1.253   5.940
 1170SOL    HW2 4679  10.705   1.157   5.890
 1170SOL     MW 4680  10.739   1.237   5.890
 1171SOL     OW 4681  10.664   1.087   4.921
 1171SOL    HW1 4682  10.608   1.164   4.907
 1171SOL    HW2 4683  10.752   1.118   4.903
 1171SOL     MW 4684  10.668   1.100   4.917
 1172SOL     OW 4685  10.430   2.961   4.619
 1172SOL    HW1 4686  10.401   2.889   4.562
 1172SOL    HW2 4687  10.525   2.961   4.609
 1172SOL     MW 4688  10.438   2.953   4.611
 1173SOL     OW 4689  11.280   0.447   3.122
 1173SOL    HW1 4690  11.188   0.456   3.149
 1173SOL    HW2 4691  11.290   0.507   3.050
 1173SOL     MW 4692  11.270   0.455   3.117
 1174SOL     OW 4693  12.813   3.190   3.280
 1174SOL    HW1 4694  12.752   3.195   3.354
 1174SOL    HW2 4695  12.857   3.274   3.279
 1174SOL     MW 4696  12.811   3.200   3.289
 1175SOL     OW 4697  10.713   2.045   6.025
 1175SOL    HW1 4698  10.792   2.100   6.022
 1175SOL    HW2 4699  10.655   2.092   6.083
 1175SOL     MW 4700  10.716   2.057   6.032
 1176SOL     OW 4701  10.145   0.676   4.533
 1176SOL    HW1 4702  10.131   0.747   4.469
 1176SOL    HW2 4703  10.065   0.625   4.528
 1176SOL     MW 4704  10.133   0.679   4.524
 1177SOL     OW 4705  10.505   0.579   3.335
 1177SOL    HW1 4706  10.479   0.494   3.370
 1177SOL    HW2 4707  10.438   0.639   3.364
 1177SOL     MW 4708  10.494   0.576   3.343
 1178SOL     OW 4709  13.252   3.326   5.234
 1178SOL    HW1 4710  13.340   3.294   5.254
 1178SOL    HW2 4711  13.242   3.309   5.141
 1178SOL     MW 4712  13.261   3.320   5.225
 1179SOL     OW 4713  11.717   3.382   3.435
 1179SOL    HW1 4714  11.635   3.384   3.384
 1179SOL    HW2 4715  11.726   3.291   3.460
 1179SOL     MW 4716  11.708   3.372   3.432
 1180SOL     OW 4717  13.047   0.297   4.954
 1180SOL    HW1 4718  13.120   0.309   4.892
 1180SOL    HW2 4719  12.987   0.367   4.934
 1180SOL     MW 4720  13.049   0.307   4.944
 1181SOL     OW 4721  11.144   2.218   4.534
 1181SOL    HW1 4722  11.070   2.161   4.557
 1181SOL    HW2 4723  11.115   2.305   4.560
 1181SOL     MW 4724  11.131   2.222   4.540
 1182SOL     OW 4725  11.975   2.954   4.199
 1182SOL    HW1 4726  12.007   2.975   4.288
 1182SOL    HW2 4727  12.045   2.903   4.161
 1182SOL     MW 4728  11.988   2.950   4.206
 1183SOL     OW 4729  10.559   2.356   5.076
 1183SOL    HW1 4730  10.490   2.414   5.111
 1183SOL    HW2 4731  10.555   2.279   5.131
 1183SOL     MW 4732  10.550   2.354   5.087
 1184SOL     OW 4733  11.053   2.873   5.470
 1184SOL    HW1 4734  11.081   2.964   5.458
 1184SOL    HW2 4735  11.113   2.822   5.416
 1184SOL     MW 4736  11.064   2.878   5.462
 1185SOL     OW 4737  13.219   1.164   4.208
 1185SOL    HW1 4738  13.226   1.221   4.286
 1185SOL    HW2 4739  13.162   1.213   4.149
 1185SOL     MW 4740  13.213   1.177   4.211
 1186SOL     OW 4741  10.164   1.360   4.774
 1186SOL    HW1 4742  10.236   1.423   4.789
 1186SOL    HW2 4743  10.086   1.414   4.774
 1186SOL     MW 4744  10.163   1.374   4.776
 1187SOL     OW 4745  11.249   0.594   3.986
 1187SOL    HW1 4746  11.194   0.610   4.063
 1187SOL    HW2 4747  11.294   0.676   3.971
 1187SOL     MW 4748  11.248   0.606   3.994
 1188SOL     OW 4749  13.096   1.466   4.910
 1188SOL    HW1 4750  13.071   1.522   4.836
 1188SOL    HW2 4751  13.034   1.393   4.906
 1188SOL     MW 4752  13.086   1.464   4.900
 1189SOL     OW 4753  10.752   2.480   3.330
 1189SOL    HW1 4754  10.748   2.438   3.243
 1189SOL    HW2 4755  10.829   2.442   3.371
 1189SOL     MW 4756  10.761   2.471   3.324
 1190SOL     OW 4757  12.933   0.870   4.941
 1190SOL    HW1 4758  12.850   0.919   4.946
 1190SOL    HW2 4759  12.923   0.816   4.865
 1190SOL     MW 4760  12.922   0.870   4.933
 1191SOL     OW 4761  10.896   0.934   6.464
 1191SOL    HW1 4762  10.942   0.974   6.390
 1191SOL    HW2 4763  10.879   0.845   6.436
 1191SOL     MW 4764  10.900   0.928   6.452
 1192SOL     OW 4765  12.679   0.526   3.989
 1192SOL    HW1 4766  12.615   0.597   3.976
 1192SOL    HW2 4767  12.684   0.515   4.083
 1192SOL     MW 4768  12.672   0.533   3.998
 1193SOL     OW 4769  11.155   3.396   3.089
 1193SOL    HW1 4770  11.216   3.461   3.126
 1193SOL    HW2 4771  11.078   3.447   3.065
 1193SOL     MW 4772  11.153   3.410   3.091
 1194SOL     OW 4773  10.667   1.208   5.412
 1194SOL    HW1 4774  10.712   1.145   5.356
 1194SOL    HW2 4775  10.657   1.285   5.357
 1194SOL     MW 4776  10.671   1.210   5.399
 1195SOL     OW 4777  10.749   0.194   4.184
 1195SOL    HW1 4778  10.769   0.175   4.276
 1195SOL    HW2 4779  10.668   0.243   4.187
 1195SOL     MW 4780  10.742   0.198   4.196
 1196SOL     OW 4781  10.441   0.584   4.224
 1196SOL    HW1 4782  10.380   0.555   4.294
 1196SOL    HW2 4783  10.462   0.673   4.247
 1196SOL     MW 4784  10.436   0.591   4.235
 1197SOL     OW 4785  11.601   3.097   6.232
 1197SOL    HW1 4786  11.554   3.146   6.163
 1197SOL    HW2 4787  11.545   3.103   6.307
 1197SOL     MW 4788  11.589   3.104   6.232
 1198SOL     OW 4789  10.105   0.927   5.239
 1198SOL    HW1 4790  10.066   0.869   5.306
 1198SOL    HW2 4791  10.073   1.013   5.261
 1198SOL     MW 4792  10.097   0.930   5.250
 1199SOL     OW 4793  10.530   0.542   6.165
 1199SOL    HW1 4794  10.586   0.609   6.204
 1199SOL    HW2 4795  10.563   0.460   6.201
 1199SOL     MW 4796  10.541   0.540   6.174
 1200SOL     OW 4797  11.435   2.098   4.537
 1200SOL    HW1 4798  11.517   2.097   4.587
 1200SOL    HW2 4799  11.462   2.097   4.446
 1200SOL     MW 4800  11.448   2.097   4.532
 1201SOL     OW 4801  10.252   0.611   6.429
 1201SOL    HW1 4802  10.156   0.614   6.424
 1201SOL    HW2 4803  10.273   0.655   6.510
 1201SOL     MW 4804  10.242   0.616   6.438
 1202SOL     OW 4805  12.542   1.600   4.311
 1202SOL    HW1 4806  12.545   1.516   4.357
 1202SOL    HW2 4807  12.450   1.611   4.289
 1202SOL     MW 4808  12.531   1.591   4.314
 1203SOL     OW 4809  10.528   1.640   6.464
 1203SOL    HW1 4810  10.456   1.685   6.510
 1203SOL    HW2 4811  10.605   1.689   6.491
 1203SOL     MW 4812  10.528   1.652   6.473
 1204SOL     OW 4813  12.023   1.638   5.316
 1204SOL    HW1 4814  12.018   1.565   5.379
 1204SOL    HW2 4815  11.968   1.706   5.354
 1204SOL     MW 4816  12.016   1.637   5.328
 1205SOL     OW 4817  11.995   0.611   4.432
 1205SOL    HW1 4818  11.994   0.551   4.507
 1205SOL    HW2 4819  11.904   0.626   4.412
 1205SOL     MW 4820  11.984   0.605   4.439
 1206SOL     OW 4821  12.216   0.326   4.970
 1206SOL    HW1 4822  12.245   0.344   5.060
 1206SOL    HW2 4823  12.257   0.243   4.948
 1206SOL     MW 4824  12.224   0.319   4.978
 1207SOL     OW 4825  12.377   1.013   5.435
 1207SOL    HW1 4826  12.286   0.989   5.450
 1207SOL    HW2 4827  12.378   1.108   5.445
 1207SOL     MW 4828  12.366   1.021   5.438
 1208SOL     OW 4829  12.104   0.268   6.234
 1208SOL    HW1 4830  12.059   0.322   6.300
 1208SOL    HW2 4831  12.196   0.285   6.250
 1208SOL     MW 4832  12.110   0.277   6.244
 1209SOL     OW 4833  11.623   1.847   5.293
 1209SOL    HW1 4834  11.676   1.817   5.367
 1209SOL    HW2 4835  11.542   1.797   5.299
 1209SOL     MW 4836  11.620   1.837   5.302
 1210SOL     OW 4837  12.685   2.863   3.500
 1210SOL    HW1 4838  12.760   2.816   3.463
 1210SOL    HW2 4839  12.698   2.953   3.473
 1210SOL     MW 4840  12.696   2.868   3.492
 1211SOL     OW 4841  12.421   1.813   4.372
 1211SOL    HW1 4842  12.356   1.842   4.437
 1211SOL    HW2 4843  12.489   1.879   4.376
 1211SOL     MW 4844  12.421   1.824   4.381
 1212SOL     OW 4845  10.432   1.732   3.680
 1212SOL    HW1 4846  10.348   1.695   3.651
 1212SOL    HW2 4847  10.489   1.657   3.687
 1212SOL     MW 4848  10.428   1.719   3.677
 1213SOL     OW 4849  11.957   1.440   4.720
 1213SOL    HW1 4850  12.019   1.444   4.647
 1213SOL    HW2 4851  11.892   1.505   4.699
 1213SOL     MW 4852  11.957   1.448   4.709
 1214SOL     OW 4853  12.172   2.297   5.975
 1214SOL    HW1 4854  12.250   2.298   6.032
 1214SOL    HW2 4855  12.101   2.322   6.033
 1214SOL     MW 4856  12.173   2.300   5.989
 1215SOL     OW 4857  11.486   2.033   3.879
 1215SOL    HW1 4858  11.546   2.046   3.806
 1215SOL    HW2 4859  11.433   2.112   3.881
 1215SOL     MW 4860  11.487   2.044   3.870
 1216SOL     OW 4861  12.117   0.161   4.554
 1216SOL    HW1 4862  12.122   0.249   4.514
 1216SOL    HW2 4863  12.049   0.117   4.505
 1216SOL     MW 4864  12.110   0.167   4.543
 1217SOL     OW 4865  11.916   1.679   6.133
 1217SOL    HW1 4866  11.939   1.765   6.172
 1217SOL    HW2 4867  11.998   1.631   6.133
 1217SOL     MW 4868  11.928   1.684   6.138
 1218SOL     OW 4869  10.356   1.113   5.197
 1218SOL    HW1 4870  10.293   1.042   5.213
 1218SOL    HW2 4871  10.406   1.119   5.277
 1218SOL     MW 4872  10.354   1.105   5.208
 1219SOL     OW 4873  10.937   1.769   3.379
 1219SOL    HW1 4874  10.877   1.732   3.312
 1219SOL    HW2 4875  10.998   1.822   3.329
 1219SOL     MW 4876  10.937   1.771   3.365
 1220SOL     OW 4877  10.471   1.813   3.368
 1220SOL    HW1 4878  10.476   1.745   3.436
 1220SOL    HW2 4879  10.385   1.801   3.329
 1220SOL     MW 4880  10.462   1.803   3.372
 1221SOL     OW 4881  12.237   2.540   4.862
 1221SOL    HW1 4882  12.235   2.515   4.769
 1221SOL    HW2 4883  12.160   2.595   4.873
 1221SOL     MW 4884  12.227   2.543   4.852
 1222SOL     OW 4885  11.111   2.835   5.964
 1222SOL    HW1 4886  11.171   2.873   5.899
 1222SOL    HW2 4887  11.027   2.875   5.944
 1222SOL     MW 4888  11.108   2.844   5.953
 1223SOL     OW 4889  10.891   1.136   3.131
 1223SOL    HW1 4890  10.981   1.164   3.114
 1223SOL    HW2 4891  10.862   1.098   3.049
 1223SOL     MW 4892  10.898   1.134   3.120
 1224SOL     OW 4893  12.398   1.578   4.078
 1224SOL    HW1 4894  12.310   1.610   4.101
 1224SOL    HW2 4895  12.410   1.608   3.989
 1224SOL     MW 4896  12.389   1.586   4.070
 1225SOL     OW 4897  13.186   1.640   6.162
 1225SOL    HW1 4898  13.261   1.612   6.109
 1225SOL    HW2 4899  13.225   1.696   6.228
 1225SOL     MW 4900  13.200   1.643   6.164
 1226SOL     OW 4901  11.688   0.468   3.882
 1226SOL    HW1 4902  11.679   0.490   3.976
 1226SOL    HW2 4903  11.762   0.519   3.853
 1226SOL     MW 4904  11.696   0.477   3.890
 1227SOL     OW 4905  13.288   1.107   5.063
 1227SOL    HW1 4906  13.340   1.154   4.997
 1227SOL    HW2 4907  13.199   1.133   5.046
 1227SOL     MW 4908  13.284   1.115   5.053
 1228SOL     OW 4909  11.554   0.676   5.986
 1228SOL    HW1 4910  11.480   0.686   5.925
 1228SOL    HW2 4911  11.576   0.584   5.981
 1228SOL     MW 4912  11.547   0.666   5.978
 1229SOL     OW 4913  10.243   3.055   3.050
 1229SOL    HW1 4914  10.281   2.995   3.115
 1229SOL    HW2 4915  10.150   3.050   3.067
 1229SOL     MW 4916  10.237   3.047   3.060
 1230SOL     OW 4917  12.580   3.130   4.966
 1230SOL    HW1 4918  12.566   3.082   4.883
 1230SOL    HW2 4919  12.535   3.078   5.030
 1230SOL     MW 4920  12.573   3.118   4.963
 1231SOL     OW 4921  10.852   2.926   5.223
 1231SOL    HW1 4922  10.828   2.921   5.317
 1231SOL    HW2 4923  10.808   2.852   5.185
 1231SOL     MW 4924  10.844   2.917   5.230
 1232SOL     OW 4925  13.254   2.053   5.781
 1232SOL    HW1 4926  13.209   1.972   5.758
 1232SOL    HW2 4927  13.341   2.043   5.744
 1232SOL     MW 4928  13.259   2.042   5.774
 1233SOL     OW 4929  11.032   3.317   4.606
 1233SOL    HW1 4930  10.967   3.269   4.659
 1233SOL    HW2 4931  11.013   3.408   4.623
 1233SOL     MW 4932  11.022   3.322   4.614
 1234SOL     OW 4933  13.197   1.716   4.202
 1234SOL    HW1 4934  13.160   1.691   4.287
 1234SOL    HW2 4935  13.251   1.792   4.221
 1234SOL     MW 4936  13.199   1.722   4.214
 1235SOL     OW 4937  11.217   2.712   6.190
 1235SOL    HW1 4938  11.244   2.698   6.098
 1235SOL    HW2 4939  11.257   2.795   6.214
 1235SOL     MW 4940  11.225   2.720   6.181
 1236SOL     OW 4941  11.072   1.722   3.808
 1236SOL    HW1 4942  11.151   1.711   3.755
 1236SOL    HW2 4943  11.034   1.804   3.777
 1236SOL     MW 4944  11.077   1.730   3.798
 1237SOL     OW 4945  11.782   0.080   5.366
 1237SOL    HW1 4946  11.797   0.142   5.438
 1237SOL    HW2 4947  11.829   0.002   5.393
 1237SOL     MW 4948  11.790   0.078   5.378
 1238SOL     OW 4949  10.067   1.031   3.443
 1238SOL    HW1 4950  10.073   1.125   3.464
 1238SOL    HW2 4951  10.153   0.997   3.463
 1238SOL     MW 4952  10.078   1.039   3.448
 1239SOL     OW 4953  13.009   1.303   5.127
 1239SOL    HW1 4954  12.984   1.236   5.062
 1239SOL    HW2 4955  13.101   1.320   5.108
 1239SOL     MW 4956  13.017   1.297   5.117
 1240SOL     OW 4957  13.148   0.419   5.553
 1240SOL    HW1 4958  13.075   0.407   5.492
 1240SOL    HW2 4959  13.203   0.343   5.538
 1240SOL     MW 4960  13.146   0.409   5.544
 1241SOL     OW 4961  11.565   0.713   3.902
 1241SOL    HW1 4962  11.652   0.707   3.944
 1241SOL    HW2 4963  11.520   0.635   3.932
 1241SOL     MW 4964  11.570   0.703   3.911
 1242SOL     OW 4965  11.058   2.534   3.492
 1242SOL    HW1 4966  11.021   2.601   3.434
 1242SOL    HW2 4967  11.067   2.457   3.437
 1242SOL     MW 4968  11.055   2.533   3.478
 1243SOL     OW 4969  12.110   0.074   3.585
 1243SOL    HW1 4970  12.082  -0.000   3.530
 1243SOL    HW2 4971  12.195   0.098   3.550
 1243SOL     MW 4972  12.116   0.068   3.574
 1244SOL     OW 4973  12.810   2.035   4.422
 1244SOL    HW1 4974  12.737   2.073   4.472
 1244SOL    HW2 4975  12.878   2.022   4.487
 1244SOL     MW 4976  12.809   2.038   4.436
 1245SOL     OW 4977  11.200   0.560   5.347
 1245SOL    HW1 4978  11.145   0.618   5.294
 1245SOL    HW2 4979  11.240   0.502   5.284
 1245SOL     MW 4980  11.198   0.561   5.333
 1246SOL     OW 4981  12.546   2.131   3.263
 1246SOL    HW1 4982  12.489   2.109   3.189
 1246SOL    HW2 4983  12.491   2.181   3.321
 1246SOL     MW 4984  12.533   2.134   3.261
 1247SOL     OW 4985  13.297   3.323   5.517
 1247SOL    HW1 4986  13.321   3.253   5.579
 1247SOL    HW2 4987  13.203   3.329   5.523
 1247SOL     MW 4988  13.289   3.315   5.525
 1248SOL     OW 4989  11.705   1.988   6.101
 1248SOL    HW1 4990  11.747   1.924   6.042
 1248SOL    HW2 4991  11.777   2.037   6.137
 1248SOL     MW 4992  11.719   1.986   6.098
 1249SOL     OW 4993  11.470   2.804   3.588
 1249SOL    HW1 4994  11.388   2.770   3.625
 1249SOL    HW2 4995  11.445   2.889   3.552
 1249SOL     MW 4996  11.457   2.810   3.588
 1250SOL     OW 4997  11.158   0.936   4.708
 1250SOL    HW1 4998  11.123   1.000   4.771
 1250SOL    HW2 4999  11.250   0.930   4.728
 1250SOL     MW 5000  11.164   0.943   4.718
 1251SOL     OW 5001  11.266   2.228   4.983
 1251SOL    HW1 5002  11.251   2.158   4.918
 1251SOL    HW2 5003  11.334   2.281   4.944
 1251SOL     MW 5004  11.272   2.225   4.971
 1252SOL     OW 5005  10.559   1.273   3.622
 1252SOL    HW1 5006  10.471   1.252   3.655
 1252SOL    HW2 5007  10.584   1.351   3.669
 1252SOL     MW 5008  10.551   1.280   3.632
 1253SOL     OW 5009  12.087   3.392   6.395
 1253SOL    HW1 5010  12.100   3.367   6.303
 1253SOL    HW2 5011  11.995   3.417   6.399
 1253SOL     MW 5012  12.078   3.392   6.384
 1254SOL     OW 5013  11.764   2.866   4.213
 1254SOL    HW1 5014  11.708   2.819   4.151
 1254SOL    HW2 5015  11.800   2.797   4.268
 1254SOL     MW 5016  11.761   2.852   4.212
 1255SOL     OW 5017  10.407   0.523   5.558
 1255SOL    HW1 5018  10.409   0.616   5.582
 1255SOL    HW2 5019  10.318   0.495   5.577
 1255SOL     MW 5020  10.397   0.531   5.563
 1256SOL     OW 5021  10.912   2.124   3.951
 1256SOL    HW1 5022  10.831   2.155   3.908
 1256SOL    HW2 5023  10.927   2.039   3.911
 1256SOL     MW 5024  10.904   2.118   3.941
 1257SOL     OW 5025  11.576   0.783   3.566
 1257SOL    HW1 5026  11.569   0.861   3.512
 1257SOL    HW2 5027  11.486   0.755   3.579
 1257SOL     MW 5028  11.564   0.789   3.561
 1258SOL     OW 5029  10.514   0.068   5.046
 1258SOL    HW1 5030  10.528  -0.000   4.980
 1258SOL    HW2 5031  10.519   0.149   4.997
 1258SOL     MW 5032  10.516   0.069   5.032
 1259SOL     OW 5033  11.308   1.547   3.647
 1259SOL    HW1 5034  11.255   1.605   3.590
 1259SOL    HW2 5035  11.382   1.523   3.594
 1259SOL     MW 5036  11.310   1.551   3.634
 1260SOL     OW 5037  10.300   1.622   6.315
 1260SOL    HW1 5038  10.392   1.600   6.297
 1260SOL    HW2 5039  10.303   1.708   6.354
 1260SOL     MW 5040  10.311   1.630   6.317
 1261SOL     OW 5041  10.996   0.251   6.251
 1261SOL    HW1 5042  11.043   0.309   6.191
 1261SOL    HW2 5043  10.912   0.238   6.210
 1261SOL     MW 5044  10.992   0.256   6.239
 1262SOL     OW 5045  12.779   0.499   6.137
 1262SOL    HW1 5046  12.739   0.448   6.208
 1262SOL    HW2 5047  12.806   0.434   6.073
 1262SOL     MW 5048  12.777   0.485   6.138
 1263SOL     OW 5049  12.486   1.505   5.326
 1263SOL    HW1 5050  12.433   1.449   5.385
 1263SOL    HW2 5051  12.548   1.547   5.383
 1263SOL     MW 5052  12.487   1.503   5.340
 1264SOL     OW 5053  11.943   0.797   6.352
 1264SOL    HW1 5054  11.964   0.815   6.444
 1264SOL    HW2 5055  11.849   0.810   6.346
 1264SOL     MW 5056  11.934   0.800   6.362
 1265SOL     OW 5057  13.340   2.410   5.834
 1265SOL    HW1 5058  13.335   2.481   5.770
 1265SOL    HW2 5059  13.274   2.348   5.806
 1265SOL     MW 5060  13.332   2.411   5.823
 1266SOL     OW 5061  13.021   0.626   4.214
 1266SOL    HW1 5062  13.101   0.678   4.224
 1266SOL    HW2 5063  13.007   0.587   4.300
 1266SOL     MW 5064  13.029   0.627   4.226
 1267SOL     OW 5065  11.092   1.577   6.134
 1267SOL    HW1 5066  11.099   1.577   6.037
 1267SOL    HW2 5067  11.073   1.487   6.156
 1267SOL     MW 5068  11.091   1.566   6.124
 1268SOL     OW 5069  12.053   1.286   4.338
 1268SOL    HW1 5070  12.014   1.373   4.326
 1268SOL    HW2 5071  12.094   1.291   4.424
 1268SOL     MW 5072  12.053   1.298   4.347
 1269SOL     OW 5073  13.100   1.438   4.081
 1269SOL    HW1 5074  13.073   1.517   4.033
 1269SOL    HW2 5075  13.022   1.385   4.084
 1269SOL     MW 5076  13.088   1.442   4.075
 1270SOL     OW 5077  11.529   0.906   6.425
 1270SOL    HW1 5078  11.516   0.982   6.366
 1270SOL    HW2 5079  11.458   0.848   6.404
 1270SOL     MW 5080  11.519   0.909   6.415
 1271SOL     OW 5081  10.652   1.849   6.128
 1271SOL    HW1 5082  10.615   1.886   6.209
 1271SOL    HW2 5083  10.587   1.786   6.100
 1271SOL     MW 5084  10.640   1.846   6.135
 1272SOL     OW 5085  12.002   0.068   4.988
 1272SOL    HW1 5086  12.021  -0.002   4.923
 1272SOL    HW2 5087  12.068   0.133   4.970
 1272SOL     MW 5088  12.012   0.067   4.977
 1273SOL     OW 5089  13.177   2.991   3.924
 1273SOL    HW1 5090  13.094   2.968   3.881
 1273SOL    HW2 5091  13.151   3.047   3.997
 1273SOL     MW 5092  13.164   2.995   3.928
 1274SOL     OW 5093  10.450   2.933   3.242
 1274SOL    HW1 5094  10.503   2.878   3.301
 1274SOL    HW2 5095  10.415   3.001   3.299
 1274SOL     MW 5096  10.452   2.934   3.256
 1275SOL     OW 5097  11.983   1.447   3.541
 1275SOL    HW1 5098  11.976   1.388   3.466
 1275SOL    HW2 5099  12.071   1.480   3.537
 1275SOL     MW 5100  11.992   1.444   3.531
 1276SOL     OW 5101  13.199   3.139   3.731
 1276SOL    HW1 5102  13.157   3.179   3.808
 1276SOL    HW2 5103  13.291   3.161   3.740
 1276SOL     MW 5104  13.205   3.146   3.741
 1277SOL     OW 5105  11.769   3.167   4.407
 1277SOL    HW1 5106  11.847   3.204   4.364
 1277SOL    HW2 5107  11.697   3.221   4.377
 1277SOL     MW 5108  11.770   3.178   4.398
 1278SOL     OW 5109  12.343   2.325   4.723
 1278SOL    HW1 5110  12.378   2.237   4.710
 1278SOL    HW2 5111  12.406   2.382   4.679
 1278SOL     MW 5112  12.355   2.321   4.716
 1279SOL     OW 5113  11.955   2.233   4.052
 1279SOL    HW1 5114  12.003   2.303   4.007
 1279SOL    HW2 5115  11.869   2.271   4.070
 1279SOL     MW 5116  11.950   2.246   4.049
 1280SOL     OW 5117  12.204   2.005   4.465
 1280SOL    HW1 5118  12.159   1.937   4.517
 1280SOL    HW2 5119  12.174   2.086   4.504
 1280SOL     MW 5120  12.195   2.006   4.476
 1281SOL     OW 5121  12.483   1.252   6.195
 1281SOL    HW1 5122  12.547   1.290   6.135
 1281SOL    HW2 5123  12.424   1.323   6.214
 1281SOL     MW 5124  12.484   1.265   6.190
 1282SOL     OW 5125  10.683   2.346   6.161
 1282SOL    HW1 5126  10.753   2.280   6.154
 1282SOL    HW2 5127  10.671   2.376   6.072
 1282SOL     MW 5128  10.690   2.342   6.150
 1283SOL     OW 5129  11.762   1.818   3.817
 1283SOL    HW1 5130  11.834   1.822   3.753
 1283SOL    HW2 5131  11.709   1.894   3.798
 1283SOL     MW 5132  11.764   1.827   3.807
 1284SOL     OW 5133  10.409   2.307   4.735
 1284SOL    HW1 5134  10.403   2.399   4.709
 1284SOL    HW2 5135  10.368   2.259   4.664
 1284SOL     MW 5136  10.404   2.312   4.724
 1285SOL     OW 5137  11.672   3.157   6.478
 1285SOL    HW1 5138  11.764   3.174   6.505
 1285SOL    HW2 5139  11.654   3.070   6.510
 1285SOL     MW 5140  11.681   3.149   6.485
 1286SOL     OW 5141  12.809   1.614   5.233
 1286SOL    HW1 5142  12.741   1.615   5.300
 1286SOL    HW2 5143  12.858   1.694   5.248
 1286SOL     MW 5144  12.807   1.623   5.243
 1287SOL     OW 5145  11.923   1.567   3.153
 1287SOL    HW1 5146  11.855   1.534   3.213
 1287SOL    HW2 5147  11.939   1.495   3.093
 1287SOL     MW 5148  11.916   1.555   3.153
 1288SOL     OW 5149  12.295   1.112   4.201
 1288SOL    HW1 5150  12.267   1.186   4.146
 1288SOL    HW2 5151  12.237   1.116   4.277
 1288SOL     MW 5152  12.284   1.122   4.204
 1289SOL     OW 5153  11.591   0.022   5.256
 1289SOL    HW1 5154  11.570  -0.003   5.165
 1289SOL    HW2 5155  11.565   0.113   5.262
 1289SOL     MW 5156  11.585   0.029   5.246
 1290SOL     OW 5157  12.106   2.657   5.775
 1290SOL    HW1 5158  12.037   2.714   5.740
 1290SOL    HW2 5159  12.163   2.640   5.701
 1290SOL     MW 5160  12.105   2.662   5.762
 1291SOL     OW 5161  11.771   0.721   5.629
 1291SOL    HW1 5162  11.853   0.687   5.590
 1291SOL    HW2 5163  11.773   0.814   5.608
 1291SOL     MW 5164  11.781   0.728   5.622
 1292SOL     OW 5165  13.303   2.485   4.587
 1292SOL    HW1 5166  13.339   2.539   4.515
 1292SOL    HW2 5167  13.212   2.474   4.563
 1292SOL     MW 5168  13.297   2.490   4.575
 1293SOL     OW 5169  12.418   2.569   5.253
 1293SOL    HW1 5170  12.355   2.624   5.300
 1293SOL    HW2 5171  12.475   2.536   5.321
 1293SOL     MW 5172  12.417   2.572   5.267
 1294SOL     OW 5173  12.586   1.067   3.083
 1294SOL    HW1 5174  12.630   1.153   3.091
 1294SOL    HW2 5175  12.494   1.088   3.076
 1294SOL     MW 5176  12.581   1.080   3.083
 1295SOL     OW 5177  11.482   2.358   3.466
 1295SOL    HW1 5178  11.493   2.335   3.373
 1295SOL    HW2 5179  11.569   2.382   3.494
 1295SOL     MW 5180  11.494   2.358   3.458
 1296SOL     OW 5181  11.926   2.948   5.814
 1296SOL    HW1 5182  11.893   2.982   5.897
 1296SOL    HW2 5183  11.871   2.988   5.748
 1296SOL     MW 5184  11.915   2.957   5.816
 1297SOL     OW 5185  12.353   1.192   3.796
 1297SOL    HW1 5186  12.311   1.273   3.826
 1297SOL    HW2 5187  12.386   1.151   3.875
 1297SOL     MW 5188  12.352   1.197   3.809
 1298SOL     OW 5189  10.208   2.376   4.225
 1298SOL    HW1 5190  10.131   2.428   4.250
 1298SOL    HW2 5191  10.275   2.441   4.206
 1298SOL     MW 5192  10.207   2.390   4.225
 1299SOL     OW 5193  10.750   1.099   3.833
 1299SOL    HW1 5194  10.701   1.167   3.786
 1299SOL    HW2 5195  10.814   1.147   3.884
 1299SOL     MW 5196  10.751   1.113   3.833
 1300SOL     OW 5197  11.189   0.580   5.691
 1300SOL    HW1 5198  11.264   0.530   5.723
 1300SOL    HW2 5199  11.216   0.611   5.606
 1300SOL     MW 5200  11.201   0.578   5.685
   0.00000   0.00000   0.00000
