; Run control
integrator               = md       
tinit                    = 0
dt                       = 0.001
nsteps                   = 100000    ; 100 ps
nstcomm                  = 100
; Output control
nstxout                  = 0
nstvout                  = 0
nstfout                  = 0
nstlog                   = 500
nstenergy                = 0
nstxout-compressed       = 500
; Neighborsearching and short-range nonbonded interactions
cutoff-scheme            = verlet
nstlist                  = 20
ns_type                  = grid
pbc                      = xyz
rlist                    = 1.2
; Electrostatics
coulombtype              = PME
rcoulomb                 = 1.2
; van der Waals
vdwtype                  = cutoff
vdw-modifier             = potential-switch
rvdw-switch              = 1.0
rvdw                     = 1.2
; Apply long range dispersion corrections for Energy and Pressure
DispCorr                  = EnerPres
; Spacing for the PME/PPPM FFT grid
fourierspacing           = 0.12
; EWALD/PME/PPPM parameters
pme_order                = 4
ewald_rtol               = 1e-06
epsilon_surface          = 0
; Temperature coupling
; tcoupl is implicitly handled by the sd integrator
tc_grps                  = system
tau_t                    = 1.0
ref_t                    = 298
; Pressure coupling is on for NPT
Pcoupl                   = Berendsen
tau_p                    = 1.0
compressibility          = 4.5e-05
ref_p                    = 1
; Do not generate velocities
gen_vel                  = no 
; options for bonds
constraints              = h-bonds  ; we only have C-H bonds here
; Type of constraint algorithm
constraint-algorithm     = lincs
; Constrain the starting configuration
; since we are continuing from NVT
continuation             = yes 
; Highest order in the expansion of the constraint coupling matrix
lincs-order              = 4
; Number of iterations in the final step of LINCS. 1 is fine for
; normal simulations, but use 2 to conserve energy in NVE runs.
; For energy minimization with constraints it should be 4 to 8.
lincs-iter               = 1
; Lincs will write a warning to the stderr if in one step a bond
; rotates over more degrees than
lincs-warnangle          = 30
 SIMULATED ANNEALING                                                                                                                                                                         
;; Type of annealing for each temperature group (no/single/periodic)                            
annealing                = single
;; Number of time points to use for specifying annealing in each group                          
annealing_npoints        = 43
; List of times at the annealing points for each group
annealing_time           = 0 42500 47500 52500 57500 62500 67500 72500 77500 82500 87500 92500 97500 102500 107500 112500 117500 122500 127500 132500 137500 142500 147500 152500 157500 162500 167500 172500 177500 182500 187500 192500 197500 202500 207500 212500 217500 222500 227500 232500 237500 242500 247500
; Temp. at each annealing point, for each group.
annealing_temp           = 353 523 523 503 503 483 483 463 463 443 443 423 423 403 403 383 383 363 363 343 343 323 323 303 303 283 283 263 263 243 243 223 223 203 203 183 183 163 163 143 143 123 123

